# vtk DataFile Version 2.0
particlePositions
ASCII
DATASET POLYDATA
POINTS 700 float
0.0166667	0.516667	0
0.05	0.516667	0
0.0833333	0.516667	0
0.116667	0.516667	0
0.15	0.516667	0
0.183333	0.516667	0
0.216667	0.516667	0
0.25	0.516667	0
0.283333	0.516667	0
0.316667	0.516667	0
0.35	0.516667	0
0.383333	0.516667	0
0.416667	0.516667	0
0.45	0.516667	0
0.483333	0.516667	0
0.516667	0.516667	0
0.55	0.516667	0
0.583333	0.516667	0
0.616667	0.516667	0
0.65	0.516667	0
0.683333	0.516667	0
0.716667	0.516667	0
0.75	0.516667	0
0.783333	0.516667	0
0.816667	0.516667	0
0.85	0.516667	0
0.883333	0.516667	0
0.916667	0.516667	0
0.95	0.516667	0
0.983333	0.516667	0
0.0166667	0.55	0
0.05	0.55	0
0.0833333	0.55	0
0.116667	0.55	0
0.15	0.55	0
0.183333	0.55	0
0.216667	0.55	0
0.25	0.55	0
0.283333	0.55	0
0.316667	0.55	0
0.35	0.55	0
0.383333	0.55	0
0.416667	0.55	0
0.45	0.55	0
0.483333	0.55	0
0.516667	0.55	0
0.55	0.55	0
0.583333	0.55	0
0.616667	0.55	0
0.65	0.55	0
0.683333	0.55	0
0.716667	0.55	0
0.75	0.55	0
0.783333	0.55	0
0.816667	0.55	0
0.85	0.55	0
0.883333	0.55	0
0.916667	0.55	0
0.95	0.55	0
0.983333	0.55	0
0.0166667	0.583333	0
0.05	0.583333	0
0.0833333	0.583333	0
0.116667	0.583333	0
0.15	0.583333	0
0.183333	0.583333	0
0.216667	0.583333	0
0.25	0.583333	0
0.283333	0.583333	0
0.316667	0.583333	0
0.35	0.583333	0
0.383333	0.583333	0
0.416667	0.583333	0
0.45	0.583333	0
0.483333	0.583333	0
0.516667	0.583333	0
0.55	0.583333	0
0.583333	0.583333	0
0.616667	0.583333	0
0.65	0.583333	0
0.683333	0.583333	0
0.716667	0.583333	0
0.75	0.583333	0
0.783333	0.583333	0
0.816667	0.583333	0
0.85	0.583333	0
0.883333	0.583333	0
0.916667	0.583333	0
0.95	0.583333	0
0.983333	0.583333	0
0.0166667	0.616667	0
0.05	0.616667	0
0.0833333	0.616667	0
0.116667	0.616667	0
0.15	0.616667	0
0.183333	0.616667	0
0.216667	0.616667	0
0.25	0.616667	0
0.283333	0.616667	0
0.316667	0.616667	0
0.35	0.616667	0
0.383333	0.616667	0
0.416667	0.616667	0
0.45	0.616667	0
0.483333	0.616667	0
0.516667	0.616667	0
0.55	0.616667	0
0.583333	0.616667	0
0.616667	0.616667	0
0.65	0.616667	0
0.683333	0.616667	0
0.716667	0.616667	0
0.75	0.616667	0
0.783333	0.616667	0
0.816667	0.616667	0
0.85	0.616667	0
0.883333	0.616667	0
0.916667	0.616667	0
0.95	0.616667	0
0.983333	0.616667	0
0.0166667	0.65	0
0.05	0.65	0
0.0833333	0.65	0
0.116667	0.65	0
0.15	0.65	0
0.183333	0.65	0
0.216667	0.65	0
0.25	0.65	0
0.283333	0.65	0
0.316667	0.65	0
0.35	0.65	0
0.383333	0.65	0
0.416667	0.65	0
0.45	0.65	0
0.483333	0.65	0
0.516667	0.65	0
0.55	0.65	0
0.583333	0.65	0
0.616667	0.65	0
0.65	0.65	0
0.683333	0.65	0
0.716667	0.65	0
0.75	0.65	0
0.783333	0.65	0
0.816667	0.65	0
0.85	0.65	0
0.883333	0.65	0
0.916667	0.65	0
0.95	0.65	0
0.983333	0.65	0
0.0166667	0.683333	0
0.05	0.683333	0
0.0833333	0.683333	0
0.116667	0.683333	0
0.15	0.683333	0
0.183333	0.683333	0
0.216667	0.683333	0
0.25	0.683333	0
0.283333	0.683333	0
0.316667	0.683333	0
0.35	0.683333	0
0.383333	0.683333	0
0.416667	0.683333	0
0.45	0.683333	0
0.483333	0.683333	0
0.516667	0.683333	0
0.55	0.683333	0
0.583333	0.683333	0
0.616667	0.683333	0
0.65	0.683333	0
0.683333	0.683333	0
0.716667	0.683333	0
0.75	0.683333	0
0.783333	0.683333	0
0.816667	0.683333	0
0.85	0.683333	0
0.883333	0.683333	0
0.916667	0.683333	0
0.95	0.683333	0
0.983333	0.683333	0
0.0166667	0.716667	0
0.05	0.716667	0
0.0833333	0.716667	0
0.116667	0.716667	0
0.15	0.716667	0
0.183333	0.716667	0
0.216667	0.716667	0
0.25	0.716667	0
0.283333	0.716667	0
0.316667	0.716667	0
0.35	0.716667	0
0.383333	0.716667	0
0.416667	0.716667	0
0.45	0.716667	0
0.483333	0.716667	0
0.516667	0.716667	0
0.55	0.716667	0
0.583333	0.716667	0
0.616667	0.716667	0
0.65	0.716667	0
0.683333	0.716667	0
0.716667	0.716667	0
0.75	0.716667	0
0.783333	0.716667	0
0.816667	0.716667	0
0.85	0.716667	0
0.883333	0.716667	0
0.916667	0.716667	0
0.95	0.716667	0
0.983333	0.716667	0
0.0166667	0.75	0
0.05	0.75	0
0.0833333	0.75	0
0.116667	0.75	0
0.15	0.75	0
0.183333	0.75	0
0.216667	0.75	0
0.25	0.75	0
0.283333	0.75	0
0.316667	0.75	0
0.35	0.75	0
0.383333	0.75	0
0.416667	0.75	0
0.45	0.75	0
0.483333	0.75	0
0.516667	0.75	0
0.55	0.75	0
0.583333	0.75	0
0.616667	0.75	0
0.65	0.75	0
0.683333	0.75	0
0.716667	0.75	0
0.75	0.75	0
0.783333	0.75	0
0.816667	0.75	0
0.85	0.75	0
0.883333	0.75	0
0.916667	0.75	0
0.95	0.75	0
0.983333	0.75	0
0.0166667	0.783333	0
0.05	0.783333	0
0.0833333	0.783333	0
0.116667	0.783333	0
0.15	0.783333	0
0.183333	0.783333	0
0.216667	0.783333	0
0.25	0.783333	0
0.283333	0.783333	0
0.316667	0.783333	0
0.35	0.783333	0
0.383333	0.783333	0
0.416667	0.783333	0
0.45	0.783333	0
0.483333	0.783333	0
0.516667	0.783333	0
0.55	0.783333	0
0.583333	0.783333	0
0.616667	0.783333	0
0.65	0.783333	0
0.683333	0.783333	0
0.716667	0.783333	0
0.75	0.783333	0
0.783333	0.783333	0
0.816667	0.783333	0
0.85	0.783333	0
0.883333	0.783333	0
0.916667	0.783333	0
0.95	0.783333	0
0.983333	0.783333	0
0.0166667	0.816667	0
0.05	0.816667	0
0.0833333	0.816667	0
0.116667	0.816667	0
0.15	0.816667	0
0.183333	0.816667	0
0.216667	0.816667	0
0.25	0.816667	0
0.283333	0.816667	0
0.316667	0.816667	0
0.35	0.816667	0
0.383333	0.816667	0
0.416667	0.816667	0
0.45	0.816667	0
0.483333	0.816667	0
0.516667	0.816667	0
0.55	0.816667	0
0.583333	0.816667	0
0.616667	0.816667	0
0.65	0.816667	0
0.683333	0.816667	0
0.716667	0.816667	0
0.75	0.816667	0
0.783333	0.816667	0
0.816667	0.816667	0
0.85	0.816667	0
0.883333	0.816667	0
0.916667	0.816667	0
0.95	0.816667	0
0.983333	0.816667	0
0.0166667	0.85	0
0.05	0.85	0
0.0833333	0.85	0
0.116667	0.85	0
0.15	0.85	0
0.183333	0.85	0
0.216667	0.85	0
0.25	0.85	0
0.283333	0.85	0
0.316667	0.85	0
0.35	0.85	0
0.383333	0.85	0
0.416667	0.85	0
0.45	0.85	0
0.483333	0.85	0
0.516667	0.85	0
0.55	0.85	0
0.583333	0.85	0
0.616667	0.85	0
0.65	0.85	0
0.683333	0.85	0
0.716667	0.85	0
0.75	0.85	0
0.783333	0.85	0
0.816667	0.85	0
0.85	0.85	0
0.883333	0.85	0
0.916667	0.85	0
0.95	0.85	0
0.983333	0.85	0
0.0166667	0.883333	0
0.05	0.883333	0
0.0833333	0.883333	0
0.116667	0.883333	0
0.15	0.883333	0
0.183333	0.883333	0
0.216667	0.883333	0
0.25	0.883333	0
0.283333	0.883333	0
0.316667	0.883333	0
0.35	0.883333	0
0.383333	0.883333	0
0.416667	0.883333	0
0.45	0.883333	0
0.483333	0.883333	0
0.516667	0.883333	0
0.55	0.883333	0
0.583333	0.883333	0
0.616667	0.883333	0
0.65	0.883333	0
0.683333	0.883333	0
0.716667	0.883333	0
0.75	0.883333	0
0.783333	0.883333	0
0.816667	0.883333	0
0.85	0.883333	0
0.883333	0.883333	0
0.916667	0.883333	0
0.95	0.883333	0
0.983333	0.883333	0
0.0166667	0.916667	0
0.05	0.916667	0
0.0833333	0.916667	0
0.116667	0.916667	0
0.15	0.916667	0
0.183333	0.916667	0
0.216667	0.916667	0
0.25	0.916667	0
0.283333	0.916667	0
0.316667	0.916667	0
0.35	0.916667	0
0.383333	0.916667	0
0.416667	0.916667	0
0.45	0.916667	0
0.483333	0.916667	0
0.516667	0.916667	0
0.55	0.916667	0
0.583333	0.916667	0
0.616667	0.916667	0
0.65	0.916667	0
0.683333	0.916667	0
0.716667	0.916667	0
0.75	0.916667	0
0.783333	0.916667	0
0.816667	0.916667	0
0.85	0.916667	0
0.883333	0.916667	0
0.916667	0.916667	0
0.95	0.916667	0
0.983333	0.916667	0
0.0166667	0.95	0
0.05	0.95	0
0.0833333	0.95	0
0.116667	0.95	0
0.15	0.95	0
0.183333	0.95	0
0.216667	0.95	0
0.25	0.95	0
0.283333	0.95	0
0.316667	0.95	0
0.35	0.95	0
0.383333	0.95	0
0.416667	0.95	0
0.45	0.95	0
0.483333	0.95	0
0.516667	0.95	0
0.55	0.95	0
0.583333	0.95	0
0.616667	0.95	0
0.65	0.95	0
0.683333	0.95	0
0.716667	0.95	0
0.75	0.95	0
0.783333	0.95	0
0.816667	0.95	0
0.85	0.95	0
0.883333	0.95	0
0.916667	0.95	0
0.95	0.95	0
0.983333	0.95	0
0.0166667	0.983333	0
0.05	0.983333	0
0.0833333	0.983333	0
0.116667	0.983333	0
0.15	0.983333	0
0.183333	0.983333	0
0.216667	0.983333	0
0.25	0.983333	0
0.283333	0.983333	0
0.316667	0.983333	0
0.35	0.983333	0
0.383333	0.983333	0
0.416667	0.983333	0
0.45	0.983333	0
0.483333	0.983333	0
0.516667	0.983333	0
0.55	0.983333	0
0.583333	0.983333	0
0.616667	0.983333	0
0.65	0.983333	0
0.683333	0.983333	0
0.716667	0.983333	0
0.75	0.983333	0
0.783333	0.983333	0
0.816667	0.983333	0
0.85	0.983333	0
0.883333	0.983333	0
0.916667	0.983333	0
0.95	0.983333	0
0.983333	0.983333	0
1	0.5	0
1	0.533333	0
1	0.566667	0
1	0.6	0
1	0.633333	0
1	0.666667	0
1	0.7	0
1	0.733333	0
1	0.766667	0
1	0.8	0
1	0.833333	0
1	0.866667	0
1	0.9	0
1	0.933333	0
1	0.966667	0
1	1	0
0.966667	1	0
0.933333	1	0
0.9	1	0
0.866667	1	0
0.833333	1	0
0.8	1	0
0.766667	1	0
0.733333	1	0
0.7	1	0
0.666667	1	0
0.633333	1	0
0.6	1	0
0.566667	1	0
0.533333	1	0
0.5	1	0
0.466667	1	0
0.433333	1	0
0.4	1	0
0.366667	1	0
0.333333	1	0
0.3	1	0
0.266667	1	0
0.233333	1	0
0.2	1	0
0.166667	1	0
0.133333	1	0
0.1	1	0
0.0666667	1	0
0.0333333	1	0
-0.116667	0.383333	0
-0.0833333	0.383333	0
-0.05	0.383333	0
-0.0166667	0.383333	0
-0.116667	0.416667	0
-0.0833333	0.416667	0
-0.05	0.416667	0
-0.0166667	0.416667	0
-0.116667	0.45	0
-0.0833333	0.45	0
-0.05	0.45	0
-0.0166667	0.45	0
-0.116667	0.483333	0
-0.0833333	0.483333	0
-0.05	0.483333	0
-0.0166667	0.483333	0
0.0166667	0.383333	0
0.05	0.383333	0
0.0833333	0.383333	0
0.116667	0.383333	0
0.15	0.383333	0
0.183333	0.383333	0
0.216667	0.383333	0
0.25	0.383333	0
0.283333	0.383333	0
0.316667	0.383333	0
0.35	0.383333	0
0.383333	0.383333	0
0.416667	0.383333	0
0.45	0.383333	0
0.483333	0.383333	0
0.516667	0.383333	0
0.55	0.383333	0
0.583333	0.383333	0
0.616667	0.383333	0
0.65	0.383333	0
0.683333	0.383333	0
0.716667	0.383333	0
0.75	0.383333	0
0.783333	0.383333	0
0.816667	0.383333	0
0.85	0.383333	0
0.883333	0.383333	0
0.916667	0.383333	0
0.95	0.383333	0
0.983333	0.383333	0
0.0166667	0.416667	0
0.05	0.416667	0
0.0833333	0.416667	0
0.116667	0.416667	0
0.15	0.416667	0
0.183333	0.416667	0
0.216667	0.416667	0
0.25	0.416667	0
0.283333	0.416667	0
0.316667	0.416667	0
0.35	0.416667	0
0.383333	0.416667	0
0.416667	0.416667	0
0.45	0.416667	0
0.483333	0.416667	0
0.516667	0.416667	0
0.55	0.416667	0
0.583333	0.416667	0
0.616667	0.416667	0
0.65	0.416667	0
0.683333	0.416667	0
0.716667	0.416667	0
0.75	0.416667	0
0.783333	0.416667	0
0.816667	0.416667	0
0.85	0.416667	0
0.883333	0.416667	0
0.916667	0.416667	0
0.95	0.416667	0
0.983333	0.416667	0
0.0166667	0.45	0
0.05	0.45	0
0.0833333	0.45	0
0.116667	0.45	0
0.15	0.45	0
0.183333	0.45	0
0.216667	0.45	0
0.25	0.45	0
0.283333	0.45	0
0.316667	0.45	0
0.35	0.45	0
0.383333	0.45	0
0.416667	0.45	0
0.45	0.45	0
0.483333	0.45	0
0.516667	0.45	0
0.55	0.45	0
0.583333	0.45	0
0.616667	0.45	0
0.65	0.45	0
0.683333	0.45	0
0.716667	0.45	0
0.75	0.45	0
0.783333	0.45	0
0.816667	0.45	0
0.85	0.45	0
0.883333	0.45	0
0.916667	0.45	0
0.95	0.45	0
0.983333	0.45	0
0.0166667	0.483333	0
0.05	0.483333	0
0.0833333	0.483333	0
0.116667	0.483333	0
0.15	0.483333	0
0.183333	0.483333	0
0.216667	0.483333	0
0.25	0.483333	0
0.283333	0.483333	0
0.316667	0.483333	0
0.35	0.483333	0
0.383333	0.483333	0
0.416667	0.483333	0
0.45	0.483333	0
0.483333	0.483333	0
0.516667	0.483333	0
0.55	0.483333	0
0.583333	0.483333	0
0.616667	0.483333	0
0.65	0.483333	0
0.683333	0.483333	0
0.716667	0.483333	0
0.75	0.483333	0
0.783333	0.483333	0
0.816667	0.483333	0
0.85	0.483333	0
0.883333	0.483333	0
0.916667	0.483333	0
0.95	0.483333	0
0.983333	0.483333	0
1	0.366667	0
1	0.4	0
1	0.433333	0
1	0.466667	0
-0.116667	0.516667	0
-0.0833333	0.516667	0
-0.05	0.516667	0
-0.0166667	0.516667	0
-0.116667	0.55	0
-0.0833333	0.55	0
-0.05	0.55	0
-0.0166667	0.55	0
-0.116667	0.583333	0
-0.0833333	0.583333	0
-0.05	0.583333	0
-0.0166667	0.583333	0
-0.116667	0.616667	0
-0.0833333	0.616667	0
-0.05	0.616667	0
-0.0166667	0.616667	0
-0.116667	0.65	0
-0.0833333	0.65	0
-0.05	0.65	0
-0.0166667	0.65	0
-0.116667	0.683333	0
-0.0833333	0.683333	0
-0.05	0.683333	0
-0.0166667	0.683333	0
-0.116667	0.716667	0
-0.0833333	0.716667	0
-0.05	0.716667	0
-0.0166667	0.716667	0
-0.116667	0.75	0
-0.0833333	0.75	0
-0.05	0.75	0
-0.0166667	0.75	0
-0.116667	0.783333	0
-0.0833333	0.783333	0
-0.05	0.783333	0
-0.0166667	0.783333	0
-0.116667	0.816667	0
-0.0833333	0.816667	0
-0.05	0.816667	0
-0.0166667	0.816667	0
-0.116667	0.85	0
-0.0833333	0.85	0
-0.05	0.85	0
-0.0166667	0.85	0
-0.116667	0.883333	0
-0.0833333	0.883333	0
-0.05	0.883333	0
-0.0166667	0.883333	0
-0.116667	0.916667	0
-0.0833333	0.916667	0
-0.05	0.916667	0
-0.0166667	0.916667	0
-0.116667	0.95	0
-0.0833333	0.95	0
-0.05	0.95	0
-0.0166667	0.95	0
-0.116667	0.983333	0
-0.0833333	0.983333	0
-0.05	0.983333	0
-0.0166667	0.983333	0
0	1	0
-0.0333333	1	0
-0.0666667	1	0
-0.1	1	0
-0.133333	1	0
POINT_DATA 700
SCALARS Index int 1
LOOKUP_TABLE default
3345
3346
3347
3348
3349
3350
3351
3352
3353
3354
3355
3356
3357
3358
3359
3360
3361
3362
3363
3364
3365
3366
3367
3368
3369
3370
3371
3372
3373
3374
3375
3376
3377
3378
3379
3380
3381
3382
3383
3384
3385
3386
3387
3388
3389
3390
3391
3392
3393
3394
3395
3396
3397
3398
3399
3400
3401
3402
3403
3404
3405
3406
3407
3408
3409
3410
3411
3412
3413
3414
3415
3416
3417
3418
3419
3420
3421
3422
3423
3424
3425
3426
3427
3428
3429
3430
3431
3432
3433
3434
3435
3436
3437
3438
3439
3440
3441
3442
3443
3444
3445
3446
3447
3448
3449
3450
3451
3452
3453
3454
3455
3456
3457
3458
3459
3460
3461
3462
3463
3464
3465
3466
3467
3468
3469
3470
3471
3472
3473
3474
3475
3476
3477
3478
3479
3480
3481
3482
3483
3484
3485
3486
3487
3488
3489
3490
3491
3492
3493
3494
3495
3496
3497
3498
3499
3500
3501
3502
3503
3504
3505
3506
3507
3508
3509
3510
3511
3512
3513
3514
3515
3516
3517
3518
3519
3520
3521
3522
3523
3524
3525
3526
3527
3528
3529
3530
3531
3532
3533
3534
3535
3536
3537
3538
3539
3540
3541
3542
3543
3544
3545
3546
3547
3548
3549
3550
3551
3552
3553
3554
3555
3556
3557
3558
3559
3560
3561
3562
3563
3564
3565
3566
3567
3568
3569
3570
3571
3572
3573
3574
3575
3576
3577
3578
3579
3580
3581
3582
3583
3584
3585
3586
3587
3588
3589
3590
3591
3592
3593
3594
3595
3596
3597
3598
3599
3600
3601
3602
3603
3604
3605
3606
3607
3608
3609
3610
3611
3612
3613
3614
3615
3616
3617
3618
3619
3620
3621
3622
3623
3624
3625
3626
3627
3628
3629
3630
3631
3632
3633
3634
3635
3636
3637
3638
3639
3640
3641
3642
3643
3644
3645
3646
3647
3648
3649
3650
3651
3652
3653
3654
3655
3656
3657
3658
3659
3660
3661
3662
3663
3664
3665
3666
3667
3668
3669
3670
3671
3672
3673
3674
3675
3676
3677
3678
3679
3680
3681
3682
3683
3684
3685
3686
3687
3688
3689
3690
3691
3692
3693
3694
3695
3696
3697
3698
3699
3700
3701
3702
3703
3704
3705
3706
3707
3708
3709
3710
3711
3712
3713
3714
3715
3716
3717
3718
3719
3720
3721
3722
3723
3724
3725
3726
3727
3728
3729
3730
3731
3732
3733
3734
3735
3736
3737
3738
3739
3740
3741
3742
3743
3744
3745
3746
3747
3748
3749
3750
3751
3752
3753
3754
3755
3756
3757
3758
3759
3760
3761
3762
3763
3764
3765
3766
3767
3768
3769
3770
3771
3772
3773
3774
3775
3776
3777
3778
3779
3780
3781
3782
3783
3784
3785
3786
3787
3788
3789
3790
3791
3792
3793
3794
3795
3796
3797
3798
3799
3800
3801
3802
3803
3804
3805
3806
3807
3808
3809
3810
3811
3812
3813
3814
3815
3816
3817
3818
3819
3820
3821
3822
3823
3824
3825
3826
3827
3828
3829
3830
3831
3832
3833
3834
3835
3836
3837
3838
3839
2276
2277
2278
2279
2306
2307
2308
2309
2336
2337
2338
2339
2366
2367
2368
2369
2715
2716
2717
2718
2719
2720
2721
2722
2723
2724
2725
2726
2727
2728
2729
2730
2731
2732
2733
2734
2735
2736
2737
2738
2739
2740
2741
2742
2743
2744
2745
2746
2747
2748
2749
2750
2751
2752
2753
2754
2755
2756
2757
2758
2759
2760
2761
2762
2763
2764
2765
2766
2767
2768
2769
2770
2771
2772
2773
2774
2775
2776
2777
2778
2779
2780
2781
2782
2783
2784
2785
2786
2787
2788
2789
2790
2791
2792
2793
2794
2795
2796
2797
2798
2799
2800
2801
2802
2803
2804
2805
2806
2807
2808
2809
2810
2811
2812
2813
2814
2815
2816
2817
2818
2819
2820
2821
2822
2823
2824
2825
2826
2827
2828
2829
2830
2831
2832
2833
2834
2846
2847
2848
2849
2876
2877
2878
2879
2906
2907
2908
2909
2936
2937
2938
2939
2966
2967
2968
2969
2996
2997
2998
2999
3026
3027
3028
3029
3056
3057
3058
3059
3086
3087
3088
3089
3116
3117
3118
3119
3146
3147
3148
3149
3176
3177
3178
3179
3206
3207
3208
3209
3236
3237
3238
3239
3266
3267
3268
3269
3296
3297
3298
3299
3300
3301
3302
3303
3304
