# vtk DataFile Version 2.0
particlePositions
ASCII
DATASET POLYDATA
POINTS 806 float
-0.983333	-0.483333	0
-0.95	-0.483333	0
-0.916667	-0.483333	0
-0.883333	-0.483333	0
-0.85	-0.483333	0
-0.816667	-0.483333	0
-0.783333	-0.483333	0
-0.75	-0.483333	0
-0.716667	-0.483333	0
-0.683333	-0.483333	0
-0.65	-0.483333	0
-0.616667	-0.483333	0
-0.583333	-0.483333	0
-0.55	-0.483333	0
-0.516667	-0.483333	0
-0.483333	-0.483333	0
-0.45	-0.483333	0
-0.416667	-0.483333	0
-0.383333	-0.483333	0
-0.35	-0.483333	0
-0.316667	-0.483333	0
-0.283333	-0.483333	0
-0.25	-0.483333	0
-0.216667	-0.483333	0
-0.183333	-0.483333	0
-0.15	-0.483333	0
-0.116667	-0.483333	0
-0.0833333	-0.483333	0
-0.05	-0.483333	0
-0.0166667	-0.483333	0
-0.983333	-0.45	0
-0.95	-0.45	0
-0.916667	-0.45	0
-0.883333	-0.45	0
-0.85	-0.45	0
-0.816667	-0.45	0
-0.783333	-0.45	0
-0.75	-0.45	0
-0.716667	-0.45	0
-0.683333	-0.45	0
-0.65	-0.45	0
-0.616667	-0.45	0
-0.583333	-0.45	0
-0.55	-0.45	0
-0.516667	-0.45	0
-0.483333	-0.45	0
-0.45	-0.45	0
-0.416667	-0.45	0
-0.383333	-0.45	0
-0.35	-0.45	0
-0.316667	-0.45	0
-0.283333	-0.45	0
-0.25	-0.45	0
-0.216667	-0.45	0
-0.183333	-0.45	0
-0.15	-0.45	0
-0.116667	-0.45	0
-0.0833333	-0.45	0
-0.05	-0.45	0
-0.0166667	-0.45	0
-0.983333	-0.416667	0
-0.95	-0.416667	0
-0.916667	-0.416667	0
-0.883333	-0.416667	0
-0.85	-0.416667	0
-0.816667	-0.416667	0
-0.783333	-0.416667	0
-0.75	-0.416667	0
-0.716667	-0.416667	0
-0.683333	-0.416667	0
-0.65	-0.416667	0
-0.616667	-0.416667	0
-0.583333	-0.416667	0
-0.55	-0.416667	0
-0.516667	-0.416667	0
-0.483333	-0.416667	0
-0.45	-0.416667	0
-0.416667	-0.416667	0
-0.383333	-0.416667	0
-0.35	-0.416667	0
-0.316667	-0.416667	0
-0.283333	-0.416667	0
-0.25	-0.416667	0
-0.216667	-0.416667	0
-0.183333	-0.416667	0
-0.15	-0.416667	0
-0.116667	-0.416667	0
-0.0833333	-0.416667	0
-0.05	-0.416667	0
-0.0166667	-0.416667	0
-0.983333	-0.383333	0
-0.95	-0.383333	0
-0.916667	-0.383333	0
-0.883333	-0.383333	0
-0.85	-0.383333	0
-0.816667	-0.383333	0
-0.783333	-0.383333	0
-0.75	-0.383333	0
-0.716667	-0.383333	0
-0.683333	-0.383333	0
-0.65	-0.383333	0
-0.616667	-0.383333	0
-0.583333	-0.383333	0
-0.55	-0.383333	0
-0.516667	-0.383333	0
-0.483333	-0.383333	0
-0.45	-0.383333	0
-0.416667	-0.383333	0
-0.383333	-0.383333	0
-0.35	-0.383333	0
-0.316667	-0.383333	0
-0.283333	-0.383333	0
-0.25	-0.383333	0
-0.216667	-0.383333	0
-0.183333	-0.383333	0
-0.15	-0.383333	0
-0.116667	-0.383333	0
-0.0833333	-0.383333	0
-0.05	-0.383333	0
-0.0166667	-0.383333	0
-0.983333	-0.35	0
-0.95	-0.35	0
-0.916667	-0.35	0
-0.883333	-0.35	0
-0.85	-0.35	0
-0.816667	-0.35	0
-0.783333	-0.35	0
-0.75	-0.35	0
-0.716667	-0.35	0
-0.683333	-0.35	0
-0.65	-0.35	0
-0.616667	-0.35	0
-0.583333	-0.35	0
-0.55	-0.35	0
-0.516667	-0.35	0
-0.483333	-0.35	0
-0.45	-0.35	0
-0.416667	-0.35	0
-0.383333	-0.35	0
-0.35	-0.35	0
-0.316667	-0.35	0
-0.283333	-0.35	0
-0.25	-0.35	0
-0.216667	-0.35	0
-0.183333	-0.35	0
-0.15	-0.35	0
-0.116667	-0.35	0
-0.0833333	-0.35	0
-0.05	-0.35	0
-0.0166667	-0.35	0
-0.983333	-0.316667	0
-0.95	-0.316667	0
-0.916667	-0.316667	0
-0.883333	-0.316667	0
-0.85	-0.316667	0
-0.816667	-0.316667	0
-0.783333	-0.316667	0
-0.75	-0.316667	0
-0.716667	-0.316667	0
-0.683333	-0.316667	0
-0.65	-0.316667	0
-0.616667	-0.316667	0
-0.583333	-0.316667	0
-0.55	-0.316667	0
-0.516667	-0.316667	0
-0.483333	-0.316667	0
-0.45	-0.316667	0
-0.416667	-0.316667	0
-0.383333	-0.316667	0
-0.35	-0.316667	0
-0.316667	-0.316667	0
-0.283333	-0.316667	0
-0.25	-0.316667	0
-0.216667	-0.316667	0
-0.183333	-0.316667	0
-0.15	-0.316667	0
-0.116667	-0.316667	0
-0.0833333	-0.316667	0
-0.05	-0.316667	0
-0.0166667	-0.316667	0
-0.983333	-0.283333	0
-0.95	-0.283333	0
-0.916667	-0.283333	0
-0.883333	-0.283333	0
-0.85	-0.283333	0
-0.816667	-0.283333	0
-0.783333	-0.283333	0
-0.75	-0.283333	0
-0.716667	-0.283333	0
-0.683333	-0.283333	0
-0.65	-0.283333	0
-0.616667	-0.283333	0
-0.583333	-0.283333	0
-0.55	-0.283333	0
-0.516667	-0.283333	0
-0.483333	-0.283333	0
-0.45	-0.283333	0
-0.416667	-0.283333	0
-0.383333	-0.283333	0
-0.35	-0.283333	0
-0.316667	-0.283333	0
-0.283333	-0.283333	0
-0.25	-0.283333	0
-0.216667	-0.283333	0
-0.183333	-0.283333	0
-0.15	-0.283333	0
-0.116667	-0.283333	0
-0.0833333	-0.283333	0
-0.05	-0.283333	0
-0.0166667	-0.283333	0
-0.983333	-0.25	0
-0.95	-0.25	0
-0.916667	-0.25	0
-0.883333	-0.25	0
-0.85	-0.25	0
-0.816667	-0.25	0
-0.783333	-0.25	0
-0.75	-0.25	0
-0.716667	-0.25	0
-0.683333	-0.25	0
-0.65	-0.25	0
-0.616667	-0.25	0
-0.583333	-0.25	0
-0.55	-0.25	0
-0.516667	-0.25	0
-0.483333	-0.25	0
-0.45	-0.25	0
-0.416667	-0.25	0
-0.383333	-0.25	0
-0.35	-0.25	0
-0.316667	-0.25	0
-0.283333	-0.25	0
-0.25	-0.25	0
-0.216667	-0.25	0
-0.183333	-0.25	0
-0.15	-0.25	0
-0.116667	-0.25	0
-0.0833333	-0.25	0
-0.05	-0.25	0
-0.0166667	-0.25	0
-0.983333	-0.216667	0
-0.95	-0.216667	0
-0.916667	-0.216667	0
-0.883333	-0.216667	0
-0.85	-0.216667	0
-0.816667	-0.216667	0
-0.783333	-0.216667	0
-0.75	-0.216667	0
-0.716667	-0.216667	0
-0.683333	-0.216667	0
-0.65	-0.216667	0
-0.616667	-0.216667	0
-0.583333	-0.216667	0
-0.55	-0.216667	0
-0.516667	-0.216667	0
-0.483333	-0.216667	0
-0.45	-0.216667	0
-0.416667	-0.216667	0
-0.383333	-0.216667	0
-0.35	-0.216667	0
-0.316667	-0.216667	0
-0.283333	-0.216667	0
-0.25	-0.216667	0
-0.216667	-0.216667	0
-0.183333	-0.216667	0
-0.15	-0.216667	0
-0.116667	-0.216667	0
-0.0833333	-0.216667	0
-0.05	-0.216667	0
-0.0166667	-0.216667	0
-0.983333	-0.183333	0
-0.95	-0.183333	0
-0.916667	-0.183333	0
-0.883333	-0.183333	0
-0.85	-0.183333	0
-0.816667	-0.183333	0
-0.783333	-0.183333	0
-0.75	-0.183333	0
-0.716667	-0.183333	0
-0.683333	-0.183333	0
-0.65	-0.183333	0
-0.616667	-0.183333	0
-0.583333	-0.183333	0
-0.55	-0.183333	0
-0.516667	-0.183333	0
-0.483333	-0.183333	0
-0.45	-0.183333	0
-0.416667	-0.183333	0
-0.383333	-0.183333	0
-0.35	-0.183333	0
-0.316667	-0.183333	0
-0.283333	-0.183333	0
-0.25	-0.183333	0
-0.216667	-0.183333	0
-0.183333	-0.183333	0
-0.15	-0.183333	0
-0.116667	-0.183333	0
-0.0833333	-0.183333	0
-0.05	-0.183333	0
-0.0166667	-0.183333	0
-0.983333	-0.15	0
-0.95	-0.15	0
-0.916667	-0.15	0
-0.883333	-0.15	0
-0.85	-0.15	0
-0.816667	-0.15	0
-0.783333	-0.15	0
-0.75	-0.15	0
-0.716667	-0.15	0
-0.683333	-0.15	0
-0.65	-0.15	0
-0.616667	-0.15	0
-0.583333	-0.15	0
-0.55	-0.15	0
-0.516667	-0.15	0
-0.483333	-0.15	0
-0.45	-0.15	0
-0.416667	-0.15	0
-0.383333	-0.15	0
-0.35	-0.15	0
-0.316667	-0.15	0
-0.283333	-0.15	0
-0.25	-0.15	0
-0.216667	-0.15	0
-0.183333	-0.15	0
-0.15	-0.15	0
-0.116667	-0.15	0
-0.0833333	-0.15	0
-0.05	-0.15	0
-0.0166667	-0.15	0
-0.983333	-0.116667	0
-0.95	-0.116667	0
-0.916667	-0.116667	0
-0.883333	-0.116667	0
-0.85	-0.116667	0
-0.816667	-0.116667	0
-0.783333	-0.116667	0
-0.75	-0.116667	0
-0.716667	-0.116667	0
-0.683333	-0.116667	0
-0.65	-0.116667	0
-0.616667	-0.116667	0
-0.583333	-0.116667	0
-0.55	-0.116667	0
-0.516667	-0.116667	0
-0.483333	-0.116667	0
-0.45	-0.116667	0
-0.416667	-0.116667	0
-0.383333	-0.116667	0
-0.35	-0.116667	0
-0.316667	-0.116667	0
-0.283333	-0.116667	0
-0.25	-0.116667	0
-0.216667	-0.116667	0
-0.183333	-0.116667	0
-0.15	-0.116667	0
-0.116667	-0.116667	0
-0.0833333	-0.116667	0
-0.05	-0.116667	0
-0.0166667	-0.116667	0
-0.983333	-0.0833333	0
-0.95	-0.0833333	0
-0.916667	-0.0833333	0
-0.883333	-0.0833333	0
-0.85	-0.0833333	0
-0.816667	-0.0833333	0
-0.783333	-0.0833333	0
-0.75	-0.0833333	0
-0.716667	-0.0833333	0
-0.683333	-0.0833333	0
-0.65	-0.0833333	0
-0.616667	-0.0833333	0
-0.583333	-0.0833333	0
-0.55	-0.0833333	0
-0.516667	-0.0833333	0
-0.483333	-0.0833333	0
-0.45	-0.0833333	0
-0.416667	-0.0833333	0
-0.383333	-0.0833333	0
-0.35	-0.0833333	0
-0.316667	-0.0833333	0
-0.283333	-0.0833333	0
-0.25	-0.0833333	0
-0.216667	-0.0833333	0
-0.183333	-0.0833333	0
-0.15	-0.0833333	0
-0.116667	-0.0833333	0
-0.0833333	-0.0833333	0
-0.05	-0.0833333	0
-0.0166667	-0.0833333	0
-0.983333	-0.05	0
-0.95	-0.05	0
-0.916667	-0.05	0
-0.883333	-0.05	0
-0.85	-0.05	0
-0.816667	-0.05	0
-0.783333	-0.05	0
-0.75	-0.05	0
-0.716667	-0.05	0
-0.683333	-0.05	0
-0.65	-0.05	0
-0.616667	-0.05	0
-0.583333	-0.05	0
-0.55	-0.05	0
-0.516667	-0.05	0
-0.483333	-0.05	0
-0.45	-0.05	0
-0.416667	-0.05	0
-0.383333	-0.05	0
-0.35	-0.05	0
-0.316667	-0.05	0
-0.283333	-0.05	0
-0.25	-0.05	0
-0.216667	-0.05	0
-0.183333	-0.05	0
-0.15	-0.05	0
-0.116667	-0.05	0
-0.0833333	-0.05	0
-0.05	-0.05	0
-0.0166667	-0.05	0
-0.983333	-0.0166667	0
-0.95	-0.0166667	0
-0.916667	-0.0166667	0
-0.883333	-0.0166667	0
-0.85	-0.0166667	0
-0.816667	-0.0166667	0
-0.783333	-0.0166667	0
-0.75	-0.0166667	0
-0.716667	-0.0166667	0
-0.683333	-0.0166667	0
-0.65	-0.0166667	0
-0.616667	-0.0166667	0
-0.583333	-0.0166667	0
-0.55	-0.0166667	0
-0.516667	-0.0166667	0
-0.483333	-0.0166667	0
-0.45	-0.0166667	0
-0.416667	-0.0166667	0
-0.383333	-0.0166667	0
-0.35	-0.0166667	0
-0.316667	-0.0166667	0
-0.283333	-0.0166667	0
-0.25	-0.0166667	0
-0.216667	-0.0166667	0
-0.183333	-0.0166667	0
-0.15	-0.0166667	0
-0.116667	-0.0166667	0
-0.0833333	-0.0166667	0
-0.05	-0.0166667	0
-0.0166667	-0.0166667	0
-1	0	0
-1	-0.0333333	0
-1	-0.0666667	0
-1	-0.1	0
-1	-0.133333	0
-1	-0.166667	0
-1	-0.2	0
-1	-0.233333	0
-1	-0.266667	0
-1	-0.3	0
-1	-0.333333	0
-1	-0.366667	0
-1	-0.4	0
-1	-0.433333	0
-1	-0.466667	0
-0.983333	-0.616667	0
-0.95	-0.616667	0
-0.916667	-0.616667	0
-0.883333	-0.616667	0
-0.85	-0.616667	0
-0.816667	-0.616667	0
-0.783333	-0.616667	0
-0.75	-0.616667	0
-0.716667	-0.616667	0
-0.683333	-0.616667	0
-0.65	-0.616667	0
-0.616667	-0.616667	0
-0.583333	-0.616667	0
-0.55	-0.616667	0
-0.516667	-0.616667	0
-0.483333	-0.616667	0
-0.45	-0.616667	0
-0.416667	-0.616667	0
-0.383333	-0.616667	0
-0.35	-0.616667	0
-0.316667	-0.616667	0
-0.283333	-0.616667	0
-0.25	-0.616667	0
-0.216667	-0.616667	0
-0.183333	-0.616667	0
-0.15	-0.616667	0
-0.116667	-0.616667	0
-0.0833333	-0.616667	0
-0.05	-0.616667	0
-0.0166667	-0.616667	0
-0.983333	-0.583333	0
-0.95	-0.583333	0
-0.916667	-0.583333	0
-0.883333	-0.583333	0
-0.85	-0.583333	0
-0.816667	-0.583333	0
-0.783333	-0.583333	0
-0.75	-0.583333	0
-0.716667	-0.583333	0
-0.683333	-0.583333	0
-0.65	-0.583333	0
-0.616667	-0.583333	0
-0.583333	-0.583333	0
-0.55	-0.583333	0
-0.516667	-0.583333	0
-0.483333	-0.583333	0
-0.45	-0.583333	0
-0.416667	-0.583333	0
-0.383333	-0.583333	0
-0.35	-0.583333	0
-0.316667	-0.583333	0
-0.283333	-0.583333	0
-0.25	-0.583333	0
-0.216667	-0.583333	0
-0.183333	-0.583333	0
-0.15	-0.583333	0
-0.116667	-0.583333	0
-0.0833333	-0.583333	0
-0.05	-0.583333	0
-0.0166667	-0.583333	0
-0.983333	-0.55	0
-0.95	-0.55	0
-0.916667	-0.55	0
-0.883333	-0.55	0
-0.85	-0.55	0
-0.816667	-0.55	0
-0.783333	-0.55	0
-0.75	-0.55	0
-0.716667	-0.55	0
-0.683333	-0.55	0
-0.65	-0.55	0
-0.616667	-0.55	0
-0.583333	-0.55	0
-0.55	-0.55	0
-0.516667	-0.55	0
-0.483333	-0.55	0
-0.45	-0.55	0
-0.416667	-0.55	0
-0.383333	-0.55	0
-0.35	-0.55	0
-0.316667	-0.55	0
-0.283333	-0.55	0
-0.25	-0.55	0
-0.216667	-0.55	0
-0.183333	-0.55	0
-0.15	-0.55	0
-0.116667	-0.55	0
-0.0833333	-0.55	0
-0.05	-0.55	0
-0.0166667	-0.55	0
-0.983333	-0.516667	0
-0.95	-0.516667	0
-0.916667	-0.516667	0
-0.883333	-0.516667	0
-0.85	-0.516667	0
-0.816667	-0.516667	0
-0.783333	-0.516667	0
-0.75	-0.516667	0
-0.716667	-0.516667	0
-0.683333	-0.516667	0
-0.65	-0.516667	0
-0.616667	-0.516667	0
-0.583333	-0.516667	0
-0.55	-0.516667	0
-0.516667	-0.516667	0
-0.483333	-0.516667	0
-0.45	-0.516667	0
-0.416667	-0.516667	0
-0.383333	-0.516667	0
-0.35	-0.516667	0
-0.316667	-0.516667	0
-0.283333	-0.516667	0
-0.25	-0.516667	0
-0.216667	-0.516667	0
-0.183333	-0.516667	0
-0.15	-0.516667	0
-0.116667	-0.516667	0
-0.0833333	-0.516667	0
-0.05	-0.516667	0
-0.0166667	-0.516667	0
-1	-0.5	0
-1	-0.533333	0
-1	-0.566667	0
-1	-0.6	0
-1	-0.633333	0
0.0166667	-0.616667	0
0.05	-0.616667	0
0.0833333	-0.616667	0
0.116667	-0.616667	0
0.0166667	-0.583333	0
0.05	-0.583333	0
0.0833333	-0.583333	0
0.116667	-0.583333	0
0.0166667	-0.55	0
0.05	-0.55	0
0.0833333	-0.55	0
0.116667	-0.55	0
0.0166667	-0.516667	0
0.05	-0.516667	0
0.0833333	-0.516667	0
0.116667	-0.516667	0
0.0166667	-0.483333	0
0.05	-0.483333	0
0.0833333	-0.483333	0
0.116667	-0.483333	0
0.0166667	-0.45	0
0.05	-0.45	0
0.0833333	-0.45	0
0.116667	-0.45	0
0.0166667	-0.416667	0
0.05	-0.416667	0
0.0833333	-0.416667	0
0.116667	-0.416667	0
0.0166667	-0.383333	0
0.05	-0.383333	0
0.0833333	-0.383333	0
0.116667	-0.383333	0
0.0166667	-0.35	0
0.05	-0.35	0
0.0833333	-0.35	0
0.116667	-0.35	0
0.0166667	-0.316667	0
0.05	-0.316667	0
0.0833333	-0.316667	0
0.116667	-0.316667	0
0.0166667	-0.283333	0
0.05	-0.283333	0
0.0833333	-0.283333	0
0.116667	-0.283333	0
0.0166667	-0.25	0
0.05	-0.25	0
0.0833333	-0.25	0
0.116667	-0.25	0
0.0166667	-0.216667	0
0.05	-0.216667	0
0.0833333	-0.216667	0
0.116667	-0.216667	0
0.0166667	-0.183333	0
0.05	-0.183333	0
0.0833333	-0.183333	0
0.116667	-0.183333	0
0.0166667	-0.15	0
0.05	-0.15	0
0.0833333	-0.15	0
0.116667	-0.15	0
0.0166667	-0.116667	0
0.05	-0.116667	0
0.0833333	-0.116667	0
0.116667	-0.116667	0
0.0166667	-0.0833333	0
0.05	-0.0833333	0
0.0833333	-0.0833333	0
0.116667	-0.0833333	0
0.0166667	-0.05	0
0.05	-0.05	0
0.0833333	-0.05	0
0.116667	-0.05	0
0.0166667	-0.0166667	0
0.05	-0.0166667	0
0.0833333	-0.0166667	0
0.116667	-0.0166667	0
-0.983333	0.0166667	0
-0.95	0.0166667	0
-0.916667	0.0166667	0
-0.883333	0.0166667	0
-0.85	0.0166667	0
-0.816667	0.0166667	0
-0.783333	0.0166667	0
-0.75	0.0166667	0
-0.716667	0.0166667	0
-0.683333	0.0166667	0
-0.65	0.0166667	0
-0.616667	0.0166667	0
-0.583333	0.0166667	0
-0.55	0.0166667	0
-0.516667	0.0166667	0
-0.483333	0.0166667	0
-0.45	0.0166667	0
-0.416667	0.0166667	0
-0.383333	0.0166667	0
-0.35	0.0166667	0
-0.316667	0.0166667	0
-0.283333	0.0166667	0
-0.25	0.0166667	0
-0.216667	0.0166667	0
-0.183333	0.0166667	0
-0.15	0.0166667	0
-0.116667	0.0166667	0
-0.0833333	0.0166667	0
-0.05	0.0166667	0
-0.0166667	0.0166667	0
-0.983333	0.05	0
-0.95	0.05	0
-0.916667	0.05	0
-0.883333	0.05	0
-0.85	0.05	0
-0.816667	0.05	0
-0.783333	0.05	0
-0.75	0.05	0
-0.716667	0.05	0
-0.683333	0.05	0
-0.65	0.05	0
-0.616667	0.05	0
-0.583333	0.05	0
-0.55	0.05	0
-0.516667	0.05	0
-0.483333	0.05	0
-0.45	0.05	0
-0.416667	0.05	0
-0.383333	0.05	0
-0.35	0.05	0
-0.316667	0.05	0
-0.283333	0.05	0
-0.25	0.05	0
-0.216667	0.05	0
-0.183333	0.05	0
-0.15	0.05	0
-0.116667	0.05	0
-0.0833333	0.05	0
-0.05	0.05	0
-0.0166667	0.05	0
-0.983333	0.0833333	0
-0.95	0.0833333	0
-0.916667	0.0833333	0
-0.883333	0.0833333	0
-0.85	0.0833333	0
-0.816667	0.0833333	0
-0.783333	0.0833333	0
-0.75	0.0833333	0
-0.716667	0.0833333	0
-0.683333	0.0833333	0
-0.65	0.0833333	0
-0.616667	0.0833333	0
-0.583333	0.0833333	0
-0.55	0.0833333	0
-0.516667	0.0833333	0
-0.483333	0.0833333	0
-0.45	0.0833333	0
-0.416667	0.0833333	0
-0.383333	0.0833333	0
-0.35	0.0833333	0
-0.316667	0.0833333	0
-0.283333	0.0833333	0
-0.25	0.0833333	0
-0.216667	0.0833333	0
-0.183333	0.0833333	0
-0.15	0.0833333	0
-0.116667	0.0833333	0
-0.0833333	0.0833333	0
-0.05	0.0833333	0
-0.0166667	0.0833333	0
-0.983333	0.116667	0
-0.95	0.116667	0
-0.916667	0.116667	0
-0.883333	0.116667	0
-0.85	0.116667	0
-0.816667	0.116667	0
-0.783333	0.116667	0
-0.75	0.116667	0
-0.716667	0.116667	0
-0.683333	0.116667	0
-0.65	0.116667	0
-0.616667	0.116667	0
-0.583333	0.116667	0
-0.55	0.116667	0
-0.516667	0.116667	0
-0.483333	0.116667	0
-0.45	0.116667	0
-0.416667	0.116667	0
-0.383333	0.116667	0
-0.35	0.116667	0
-0.316667	0.116667	0
-0.283333	0.116667	0
-0.25	0.116667	0
-0.216667	0.116667	0
-0.183333	0.116667	0
-0.15	0.116667	0
-0.116667	0.116667	0
-0.0833333	0.116667	0
-0.05	0.116667	0
-0.0166667	0.116667	0
-1	0.133333	0
-1	0.1	0
-1	0.0666667	0
-1	0.0333333	0
0.0166667	0.0166667	0
0.05	0.0166667	0
0.0833333	0.0166667	0
0.116667	0.0166667	0
0.0166667	0.05	0
0.05	0.05	0
0.0833333	0.05	0
0.116667	0.05	0
0.0166667	0.0833333	0
0.05	0.0833333	0
0.0833333	0.0833333	0
0.116667	0.0833333	0
0.0166667	0.116667	0
0.05	0.116667	0
0.0833333	0.116667	0
0.116667	0.116667	0
POINT_DATA 806
SCALARS Index int 1
LOOKUP_TABLE default
990
991
992
993
994
995
996
997
998
999
1000
1001
1002
1003
1004
1005
1006
1007
1008
1009
1010
1011
1012
1013
1014
1015
1016
1017
1018
1019
1020
1021
1022
1023
1024
1025
1026
1027
1028
1029
1030
1031
1032
1033
1034
1035
1036
1037
1038
1039
1040
1041
1042
1043
1044
1045
1046
1047
1048
1049
1050
1051
1052
1053
1054
1055
1056
1057
1058
1059
1060
1061
1062
1063
1064
1065
1066
1067
1068
1069
1070
1071
1072
1073
1074
1075
1076
1077
1078
1079
1080
1081
1082
1083
1084
1085
1086
1087
1088
1089
1090
1091
1092
1093
1094
1095
1096
1097
1098
1099
1100
1101
1102
1103
1104
1105
1106
1107
1108
1109
1110
1111
1112
1113
1114
1115
1116
1117
1118
1119
1120
1121
1122
1123
1124
1125
1126
1127
1128
1129
1130
1131
1132
1133
1134
1135
1136
1137
1138
1139
1140
1141
1142
1143
1144
1145
1146
1147
1148
1149
1150
1151
1152
1153
1154
1155
1156
1157
1158
1159
1160
1161
1162
1163
1164
1165
1166
1167
1168
1169
1170
1171
1172
1173
1174
1175
1176
1177
1178
1179
1180
1181
1182
1183
1184
1185
1186
1187
1188
1189
1190
1191
1192
1193
1194
1195
1196
1197
1198
1199
1200
1201
1202
1203
1204
1205
1206
1207
1208
1209
1210
1211
1212
1213
1214
1215
1216
1217
1218
1219
1220
1221
1222
1223
1224
1225
1226
1227
1228
1229
1230
1231
1232
1233
1234
1235
1236
1237
1238
1239
1240
1241
1242
1243
1244
1245
1246
1247
1248
1249
1250
1251
1252
1253
1254
1255
1256
1257
1258
1259
1260
1261
1262
1263
1264
1265
1266
1267
1268
1269
1270
1271
1272
1273
1274
1275
1276
1277
1278
1279
1280
1281
1282
1283
1284
1285
1286
1287
1288
1289
1290
1291
1292
1293
1294
1295
1296
1297
1298
1299
1300
1301
1302
1303
1304
1305
1306
1307
1308
1309
1310
1311
1312
1313
1314
1315
1316
1317
1318
1319
1320
1321
1322
1323
1324
1325
1326
1327
1328
1329
1330
1331
1332
1333
1334
1335
1336
1337
1338
1339
1340
1341
1342
1343
1344
1345
1346
1347
1348
1349
1350
1351
1352
1353
1354
1355
1356
1357
1358
1359
1360
1361
1362
1363
1364
1365
1366
1367
1368
1369
1370
1371
1372
1373
1374
1375
1376
1377
1378
1379
1380
1381
1382
1383
1384
1385
1386
1387
1388
1389
1390
1391
1392
1393
1394
1395
1396
1397
1398
1399
1400
1401
1402
1403
1404
1405
1406
1407
1408
1409
1410
1411
1412
1413
1414
1415
1416
1417
1418
1419
1420
1421
1422
1423
1424
1425
1426
1427
1428
1429
1430
1431
1432
1433
1434
1435
1436
1437
1438
1439
1440
1441
1442
1443
1444
1445
1446
1447
1448
1449
1450
1451
1452
1453
1454
330
331
332
333
334
335
336
337
338
339
340
341
342
343
344
345
346
347
348
349
350
351
352
353
354
355
356
357
358
359
360
361
362
363
364
365
366
367
368
369
370
371
372
373
374
375
376
377
378
379
380
381
382
383
384
385
386
387
388
389
390
391
392
393
394
395
396
397
398
399
400
401
402
403
404
405
406
407
408
409
410
411
412
413
414
415
416
417
418
419
420
421
422
423
424
425
426
427
428
429
430
431
432
433
434
435
436
437
438
439
440
441
442
443
444
445
446
447
448
449
480
481
482
483
484
825
826
827
828
855
856
857
858
885
886
887
888
915
916
917
918
1455
1456
1457
1458
1485
1486
1487
1488
1515
1516
1517
1518
1545
1546
1547
1548
1575
1576
1577
1578
1605
1606
1607
1608
1635
1636
1637
1638
1665
1666
1667
1668
1695
1696
1697
1698
1725
1726
1727
1728
1755
1756
1757
1758
1785
1786
1787
1788
1815
1816
1817
1818
1845
1846
1847
1848
1875
1876
1877
1878
1920
1921
1922
1923
1924
1925
1926
1927
1928
1929
1930
1931
1932
1933
1934
1935
1936
1937
1938
1939
1940
1941
1942
1943
1944
1945
1946
1947
1948
1949
1950
1951
1952
1953
1954
1955
1956
1957
1958
1959
1960
1961
1962
1963
1964
1965
1966
1967
1968
1969
1970
1971
1972
1973
1974
1975
1976
1977
1978
1979
1980
1981
1982
1983
1984
1985
1986
1987
1988
1989
1990
1991
1992
1993
1994
1995
1996
1997
1998
1999
2000
2001
2002
2003
2004
2005
2006
2007
2008
2009
2010
2011
2012
2013
2014
2015
2016
2017
2018
2019
2020
2021
2022
2023
2024
2025
2026
2027
2028
2029
2030
2031
2032
2033
2034
2035
2036
2037
2038
2039
2381
2382
2383
2384
2385
2386
2387
2388
2415
2416
2417
2418
2445
2446
2447
2448
2475
2476
2477
2478
