# vtk DataFile Version 2.0
particlePositions
ASCII
DATASET POLYDATA
POINTS 806 float
0.0166667	-0.483333	0
0.05	-0.483333	0
0.0833333	-0.483333	0
0.116667	-0.483333	0
0.15	-0.483333	0
0.183333	-0.483333	0
0.216667	-0.483333	0
0.25	-0.483333	0
0.283333	-0.483333	0
0.316667	-0.483333	0
0.35	-0.483333	0
0.383333	-0.483333	0
0.416667	-0.483333	0
0.45	-0.483333	0
0.483333	-0.483333	0
0.516667	-0.483333	0
0.55	-0.483333	0
0.583333	-0.483333	0
0.616667	-0.483333	0
0.65	-0.483333	0
0.683333	-0.483333	0
0.716667	-0.483333	0
0.75	-0.483333	0
0.783333	-0.483333	0
0.816667	-0.483333	0
0.85	-0.483333	0
0.883333	-0.483333	0
0.916667	-0.483333	0
0.95	-0.483333	0
0.983333	-0.483333	0
0.0166667	-0.45	0
0.05	-0.45	0
0.0833333	-0.45	0
0.116667	-0.45	0
0.15	-0.45	0
0.183333	-0.45	0
0.216667	-0.45	0
0.25	-0.45	0
0.283333	-0.45	0
0.316667	-0.45	0
0.35	-0.45	0
0.383333	-0.45	0
0.416667	-0.45	0
0.45	-0.45	0
0.483333	-0.45	0
0.516667	-0.45	0
0.55	-0.45	0
0.583333	-0.45	0
0.616667	-0.45	0
0.65	-0.45	0
0.683333	-0.45	0
0.716667	-0.45	0
0.75	-0.45	0
0.783333	-0.45	0
0.816667	-0.45	0
0.85	-0.45	0
0.883333	-0.45	0
0.916667	-0.45	0
0.95	-0.45	0
0.983333	-0.45	0
0.0166667	-0.416667	0
0.05	-0.416667	0
0.0833333	-0.416667	0
0.116667	-0.416667	0
0.15	-0.416667	0
0.183333	-0.416667	0
0.216667	-0.416667	0
0.25	-0.416667	0
0.283333	-0.416667	0
0.316667	-0.416667	0
0.35	-0.416667	0
0.383333	-0.416667	0
0.416667	-0.416667	0
0.45	-0.416667	0
0.483333	-0.416667	0
0.516667	-0.416667	0
0.55	-0.416667	0
0.583333	-0.416667	0
0.616667	-0.416667	0
0.65	-0.416667	0
0.683333	-0.416667	0
0.716667	-0.416667	0
0.75	-0.416667	0
0.783333	-0.416667	0
0.816667	-0.416667	0
0.85	-0.416667	0
0.883333	-0.416667	0
0.916667	-0.416667	0
0.95	-0.416667	0
0.983333	-0.416667	0
0.0166667	-0.383333	0
0.05	-0.383333	0
0.0833333	-0.383333	0
0.116667	-0.383333	0
0.15	-0.383333	0
0.183333	-0.383333	0
0.216667	-0.383333	0
0.25	-0.383333	0
0.283333	-0.383333	0
0.316667	-0.383333	0
0.35	-0.383333	0
0.383333	-0.383333	0
0.416667	-0.383333	0
0.45	-0.383333	0
0.483333	-0.383333	0
0.516667	-0.383333	0
0.55	-0.383333	0
0.583333	-0.383333	0
0.616667	-0.383333	0
0.65	-0.383333	0
0.683333	-0.383333	0
0.716667	-0.383333	0
0.75	-0.383333	0
0.783333	-0.383333	0
0.816667	-0.383333	0
0.85	-0.383333	0
0.883333	-0.383333	0
0.916667	-0.383333	0
0.95	-0.383333	0
0.983333	-0.383333	0
0.0166667	-0.35	0
0.05	-0.35	0
0.0833333	-0.35	0
0.116667	-0.35	0
0.15	-0.35	0
0.183333	-0.35	0
0.216667	-0.35	0
0.25	-0.35	0
0.283333	-0.35	0
0.316667	-0.35	0
0.35	-0.35	0
0.383333	-0.35	0
0.416667	-0.35	0
0.45	-0.35	0
0.483333	-0.35	0
0.516667	-0.35	0
0.55	-0.35	0
0.583333	-0.35	0
0.616667	-0.35	0
0.65	-0.35	0
0.683333	-0.35	0
0.716667	-0.35	0
0.75	-0.35	0
0.783333	-0.35	0
0.816667	-0.35	0
0.85	-0.35	0
0.883333	-0.35	0
0.916667	-0.35	0
0.95	-0.35	0
0.983333	-0.35	0
0.0166667	-0.316667	0
0.05	-0.316667	0
0.0833333	-0.316667	0
0.116667	-0.316667	0
0.15	-0.316667	0
0.183333	-0.316667	0
0.216667	-0.316667	0
0.25	-0.316667	0
0.283333	-0.316667	0
0.316667	-0.316667	0
0.35	-0.316667	0
0.383333	-0.316667	0
0.416667	-0.316667	0
0.45	-0.316667	0
0.483333	-0.316667	0
0.516667	-0.316667	0
0.55	-0.316667	0
0.583333	-0.316667	0
0.616667	-0.316667	0
0.65	-0.316667	0
0.683333	-0.316667	0
0.716667	-0.316667	0
0.75	-0.316667	0
0.783333	-0.316667	0
0.816667	-0.316667	0
0.85	-0.316667	0
0.883333	-0.316667	0
0.916667	-0.316667	0
0.95	-0.316667	0
0.983333	-0.316667	0
0.0166667	-0.283333	0
0.05	-0.283333	0
0.0833333	-0.283333	0
0.116667	-0.283333	0
0.15	-0.283333	0
0.183333	-0.283333	0
0.216667	-0.283333	0
0.25	-0.283333	0
0.283333	-0.283333	0
0.316667	-0.283333	0
0.35	-0.283333	0
0.383333	-0.283333	0
0.416667	-0.283333	0
0.45	-0.283333	0
0.483333	-0.283333	0
0.516667	-0.283333	0
0.55	-0.283333	0
0.583333	-0.283333	0
0.616667	-0.283333	0
0.65	-0.283333	0
0.683333	-0.283333	0
0.716667	-0.283333	0
0.75	-0.283333	0
0.783333	-0.283333	0
0.816667	-0.283333	0
0.85	-0.283333	0
0.883333	-0.283333	0
0.916667	-0.283333	0
0.95	-0.283333	0
0.983333	-0.283333	0
0.0166667	-0.25	0
0.05	-0.25	0
0.0833333	-0.25	0
0.116667	-0.25	0
0.15	-0.25	0
0.183333	-0.25	0
0.216667	-0.25	0
0.25	-0.25	0
0.283333	-0.25	0
0.316667	-0.25	0
0.35	-0.25	0
0.383333	-0.25	0
0.416667	-0.25	0
0.45	-0.25	0
0.483333	-0.25	0
0.516667	-0.25	0
0.55	-0.25	0
0.583333	-0.25	0
0.616667	-0.25	0
0.65	-0.25	0
0.683333	-0.25	0
0.716667	-0.25	0
0.75	-0.25	0
0.783333	-0.25	0
0.816667	-0.25	0
0.85	-0.25	0
0.883333	-0.25	0
0.916667	-0.25	0
0.95	-0.25	0
0.983333	-0.25	0
0.0166667	-0.216667	0
0.05	-0.216667	0
0.0833333	-0.216667	0
0.116667	-0.216667	0
0.15	-0.216667	0
0.183333	-0.216667	0
0.216667	-0.216667	0
0.25	-0.216667	0
0.283333	-0.216667	0
0.316667	-0.216667	0
0.35	-0.216667	0
0.383333	-0.216667	0
0.416667	-0.216667	0
0.45	-0.216667	0
0.483333	-0.216667	0
0.516667	-0.216667	0
0.55	-0.216667	0
0.583333	-0.216667	0
0.616667	-0.216667	0
0.65	-0.216667	0
0.683333	-0.216667	0
0.716667	-0.216667	0
0.75	-0.216667	0
0.783333	-0.216667	0
0.816667	-0.216667	0
0.85	-0.216667	0
0.883333	-0.216667	0
0.916667	-0.216667	0
0.95	-0.216667	0
0.983333	-0.216667	0
0.0166667	-0.183333	0
0.05	-0.183333	0
0.0833333	-0.183333	0
0.116667	-0.183333	0
0.15	-0.183333	0
0.183333	-0.183333	0
0.216667	-0.183333	0
0.25	-0.183333	0
0.283333	-0.183333	0
0.316667	-0.183333	0
0.35	-0.183333	0
0.383333	-0.183333	0
0.416667	-0.183333	0
0.45	-0.183333	0
0.483333	-0.183333	0
0.516667	-0.183333	0
0.55	-0.183333	0
0.583333	-0.183333	0
0.616667	-0.183333	0
0.65	-0.183333	0
0.683333	-0.183333	0
0.716667	-0.183333	0
0.75	-0.183333	0
0.783333	-0.183333	0
0.816667	-0.183333	0
0.85	-0.183333	0
0.883333	-0.183333	0
0.916667	-0.183333	0
0.95	-0.183333	0
0.983333	-0.183333	0
0.0166667	-0.15	0
0.05	-0.15	0
0.0833333	-0.15	0
0.116667	-0.15	0
0.15	-0.15	0
0.183333	-0.15	0
0.216667	-0.15	0
0.25	-0.15	0
0.283333	-0.15	0
0.316667	-0.15	0
0.35	-0.15	0
0.383333	-0.15	0
0.416667	-0.15	0
0.45	-0.15	0
0.483333	-0.15	0
0.516667	-0.15	0
0.55	-0.15	0
0.583333	-0.15	0
0.616667	-0.15	0
0.65	-0.15	0
0.683333	-0.15	0
0.716667	-0.15	0
0.75	-0.15	0
0.783333	-0.15	0
0.816667	-0.15	0
0.85	-0.15	0
0.883333	-0.15	0
0.916667	-0.15	0
0.95	-0.15	0
0.983333	-0.15	0
0.0166667	-0.116667	0
0.05	-0.116667	0
0.0833333	-0.116667	0
0.116667	-0.116667	0
0.15	-0.116667	0
0.183333	-0.116667	0
0.216667	-0.116667	0
0.25	-0.116667	0
0.283333	-0.116667	0
0.316667	-0.116667	0
0.35	-0.116667	0
0.383333	-0.116667	0
0.416667	-0.116667	0
0.45	-0.116667	0
0.483333	-0.116667	0
0.516667	-0.116667	0
0.55	-0.116667	0
0.583333	-0.116667	0
0.616667	-0.116667	0
0.65	-0.116667	0
0.683333	-0.116667	0
0.716667	-0.116667	0
0.75	-0.116667	0
0.783333	-0.116667	0
0.816667	-0.116667	0
0.85	-0.116667	0
0.883333	-0.116667	0
0.916667	-0.116667	0
0.95	-0.116667	0
0.983333	-0.116667	0
0.0166667	-0.0833333	0
0.05	-0.0833333	0
0.0833333	-0.0833333	0
0.116667	-0.0833333	0
0.15	-0.0833333	0
0.183333	-0.0833333	0
0.216667	-0.0833333	0
0.25	-0.0833333	0
0.283333	-0.0833333	0
0.316667	-0.0833333	0
0.35	-0.0833333	0
0.383333	-0.0833333	0
0.416667	-0.0833333	0
0.45	-0.0833333	0
0.483333	-0.0833333	0
0.516667	-0.0833333	0
0.55	-0.0833333	0
0.583333	-0.0833333	0
0.616667	-0.0833333	0
0.65	-0.0833333	0
0.683333	-0.0833333	0
0.716667	-0.0833333	0
0.75	-0.0833333	0
0.783333	-0.0833333	0
0.816667	-0.0833333	0
0.85	-0.0833333	0
0.883333	-0.0833333	0
0.916667	-0.0833333	0
0.95	-0.0833333	0
0.983333	-0.0833333	0
0.0166667	-0.05	0
0.05	-0.05	0
0.0833333	-0.05	0
0.116667	-0.05	0
0.15	-0.05	0
0.183333	-0.05	0
0.216667	-0.05	0
0.25	-0.05	0
0.283333	-0.05	0
0.316667	-0.05	0
0.35	-0.05	0
0.383333	-0.05	0
0.416667	-0.05	0
0.45	-0.05	0
0.483333	-0.05	0
0.516667	-0.05	0
0.55	-0.05	0
0.583333	-0.05	0
0.616667	-0.05	0
0.65	-0.05	0
0.683333	-0.05	0
0.716667	-0.05	0
0.75	-0.05	0
0.783333	-0.05	0
0.816667	-0.05	0
0.85	-0.05	0
0.883333	-0.05	0
0.916667	-0.05	0
0.95	-0.05	0
0.983333	-0.05	0
0.0166667	-0.0166667	0
0.05	-0.0166667	0
0.0833333	-0.0166667	0
0.116667	-0.0166667	0
0.15	-0.0166667	0
0.183333	-0.0166667	0
0.216667	-0.0166667	0
0.25	-0.0166667	0
0.283333	-0.0166667	0
0.316667	-0.0166667	0
0.35	-0.0166667	0
0.383333	-0.0166667	0
0.416667	-0.0166667	0
0.45	-0.0166667	0
0.483333	-0.0166667	0
0.516667	-0.0166667	0
0.55	-0.0166667	0
0.583333	-0.0166667	0
0.616667	-0.0166667	0
0.65	-0.0166667	0
0.683333	-0.0166667	0
0.716667	-0.0166667	0
0.75	-0.0166667	0
0.783333	-0.0166667	0
0.816667	-0.0166667	0
0.85	-0.0166667	0
0.883333	-0.0166667	0
0.916667	-0.0166667	0
0.95	-0.0166667	0
0.983333	-0.0166667	0
1	-0.5	0
1	-0.466667	0
1	-0.433333	0
1	-0.4	0
1	-0.366667	0
1	-0.333333	0
1	-0.3	0
1	-0.266667	0
1	-0.233333	0
1	-0.2	0
1	-0.166667	0
1	-0.133333	0
1	-0.1	0
1	-0.0666667	0
1	-0.0333333	0
-0.116667	-0.616667	0
-0.0833333	-0.616667	0
-0.05	-0.616667	0
-0.0166667	-0.616667	0
-0.116667	-0.583333	0
-0.0833333	-0.583333	0
-0.05	-0.583333	0
-0.0166667	-0.583333	0
-0.116667	-0.55	0
-0.0833333	-0.55	0
-0.05	-0.55	0
-0.0166667	-0.55	0
-0.116667	-0.516667	0
-0.0833333	-0.516667	0
-0.05	-0.516667	0
-0.0166667	-0.516667	0
0.0166667	-0.616667	0
0.05	-0.616667	0
0.0833333	-0.616667	0
0.116667	-0.616667	0
0.15	-0.616667	0
0.183333	-0.616667	0
0.216667	-0.616667	0
0.25	-0.616667	0
0.283333	-0.616667	0
0.316667	-0.616667	0
0.35	-0.616667	0
0.383333	-0.616667	0
0.416667	-0.616667	0
0.45	-0.616667	0
0.483333	-0.616667	0
0.516667	-0.616667	0
0.55	-0.616667	0
0.583333	-0.616667	0
0.616667	-0.616667	0
0.65	-0.616667	0
0.683333	-0.616667	0
0.716667	-0.616667	0
0.75	-0.616667	0
0.783333	-0.616667	0
0.816667	-0.616667	0
0.85	-0.616667	0
0.883333	-0.616667	0
0.916667	-0.616667	0
0.95	-0.616667	0
0.983333	-0.616667	0
0.0166667	-0.583333	0
0.05	-0.583333	0
0.0833333	-0.583333	0
0.116667	-0.583333	0
0.15	-0.583333	0
0.183333	-0.583333	0
0.216667	-0.583333	0
0.25	-0.583333	0
0.283333	-0.583333	0
0.316667	-0.583333	0
0.35	-0.583333	0
0.383333	-0.583333	0
0.416667	-0.583333	0
0.45	-0.583333	0
0.483333	-0.583333	0
0.516667	-0.583333	0
0.55	-0.583333	0
0.583333	-0.583333	0
0.616667	-0.583333	0
0.65	-0.583333	0
0.683333	-0.583333	0
0.716667	-0.583333	0
0.75	-0.583333	0
0.783333	-0.583333	0
0.816667	-0.583333	0
0.85	-0.583333	0
0.883333	-0.583333	0
0.916667	-0.583333	0
0.95	-0.583333	0
0.983333	-0.583333	0
0.0166667	-0.55	0
0.05	-0.55	0
0.0833333	-0.55	0
0.116667	-0.55	0
0.15	-0.55	0
0.183333	-0.55	0
0.216667	-0.55	0
0.25	-0.55	0
0.283333	-0.55	0
0.316667	-0.55	0
0.35	-0.55	0
0.383333	-0.55	0
0.416667	-0.55	0
0.45	-0.55	0
0.483333	-0.55	0
0.516667	-0.55	0
0.55	-0.55	0
0.583333	-0.55	0
0.616667	-0.55	0
0.65	-0.55	0
0.683333	-0.55	0
0.716667	-0.55	0
0.75	-0.55	0
0.783333	-0.55	0
0.816667	-0.55	0
0.85	-0.55	0
0.883333	-0.55	0
0.916667	-0.55	0
0.95	-0.55	0
0.983333	-0.55	0
0.0166667	-0.516667	0
0.05	-0.516667	0
0.0833333	-0.516667	0
0.116667	-0.516667	0
0.15	-0.516667	0
0.183333	-0.516667	0
0.216667	-0.516667	0
0.25	-0.516667	0
0.283333	-0.516667	0
0.316667	-0.516667	0
0.35	-0.516667	0
0.383333	-0.516667	0
0.416667	-0.516667	0
0.45	-0.516667	0
0.483333	-0.516667	0
0.516667	-0.516667	0
0.55	-0.516667	0
0.583333	-0.516667	0
0.616667	-0.516667	0
0.65	-0.516667	0
0.683333	-0.516667	0
0.716667	-0.516667	0
0.75	-0.516667	0
0.783333	-0.516667	0
0.816667	-0.516667	0
0.85	-0.516667	0
0.883333	-0.516667	0
0.916667	-0.516667	0
0.95	-0.516667	0
0.983333	-0.516667	0
1	-0.633333	0
1	-0.6	0
1	-0.566667	0
1	-0.533333	0
-0.116667	-0.483333	0
-0.0833333	-0.483333	0
-0.05	-0.483333	0
-0.0166667	-0.483333	0
-0.116667	-0.45	0
-0.0833333	-0.45	0
-0.05	-0.45	0
-0.0166667	-0.45	0
-0.116667	-0.416667	0
-0.0833333	-0.416667	0
-0.05	-0.416667	0
-0.0166667	-0.416667	0
-0.116667	-0.383333	0
-0.0833333	-0.383333	0
-0.05	-0.383333	0
-0.0166667	-0.383333	0
-0.116667	-0.35	0
-0.0833333	-0.35	0
-0.05	-0.35	0
-0.0166667	-0.35	0
-0.116667	-0.316667	0
-0.0833333	-0.316667	0
-0.05	-0.316667	0
-0.0166667	-0.316667	0
-0.116667	-0.283333	0
-0.0833333	-0.283333	0
-0.05	-0.283333	0
-0.0166667	-0.283333	0
-0.116667	-0.25	0
-0.0833333	-0.25	0
-0.05	-0.25	0
-0.0166667	-0.25	0
-0.116667	-0.216667	0
-0.0833333	-0.216667	0
-0.05	-0.216667	0
-0.0166667	-0.216667	0
-0.116667	-0.183333	0
-0.0833333	-0.183333	0
-0.05	-0.183333	0
-0.0166667	-0.183333	0
-0.116667	-0.15	0
-0.0833333	-0.15	0
-0.05	-0.15	0
-0.0166667	-0.15	0
-0.116667	-0.116667	0
-0.0833333	-0.116667	0
-0.05	-0.116667	0
-0.0166667	-0.116667	0
-0.116667	-0.0833333	0
-0.0833333	-0.0833333	0
-0.05	-0.0833333	0
-0.0166667	-0.0833333	0
-0.116667	-0.05	0
-0.0833333	-0.05	0
-0.05	-0.05	0
-0.0166667	-0.05	0
-0.116667	-0.0166667	0
-0.0833333	-0.0166667	0
-0.05	-0.0166667	0
-0.0166667	-0.0166667	0
-0.116667	0.0166667	0
-0.0833333	0.0166667	0
-0.05	0.0166667	0
-0.0166667	0.0166667	0
-0.116667	0.05	0
-0.0833333	0.05	0
-0.05	0.05	0
-0.0166667	0.05	0
-0.116667	0.0833333	0
-0.0833333	0.0833333	0
-0.05	0.0833333	0
-0.0166667	0.0833333	0
-0.116667	0.116667	0
-0.0833333	0.116667	0
-0.05	0.116667	0
-0.0166667	0.116667	0
0.0166667	0.0166667	0
0.05	0.0166667	0
0.0833333	0.0166667	0
0.116667	0.0166667	0
0.15	0.0166667	0
0.183333	0.0166667	0
0.216667	0.0166667	0
0.25	0.0166667	0
0.283333	0.0166667	0
0.316667	0.0166667	0
0.35	0.0166667	0
0.383333	0.0166667	0
0.416667	0.0166667	0
0.45	0.0166667	0
0.483333	0.0166667	0
0.516667	0.0166667	0
0.55	0.0166667	0
0.583333	0.0166667	0
0.616667	0.0166667	0
0.65	0.0166667	0
0.683333	0.0166667	0
0.716667	0.0166667	0
0.75	0.0166667	0
0.783333	0.0166667	0
0.816667	0.0166667	0
0.85	0.0166667	0
0.883333	0.0166667	0
0.916667	0.0166667	0
0.95	0.0166667	0
0.983333	0.0166667	0
0.0166667	0.05	0
0.05	0.05	0
0.0833333	0.05	0
0.116667	0.05	0
0.15	0.05	0
0.183333	0.05	0
0.216667	0.05	0
0.25	0.05	0
0.283333	0.05	0
0.316667	0.05	0
0.35	0.05	0
0.383333	0.05	0
0.416667	0.05	0
0.45	0.05	0
0.483333	0.05	0
0.516667	0.05	0
0.55	0.05	0
0.583333	0.05	0
0.616667	0.05	0
0.65	0.05	0
0.683333	0.05	0
0.716667	0.05	0
0.75	0.05	0
0.783333	0.05	0
0.816667	0.05	0
0.85	0.05	0
0.883333	0.05	0
0.916667	0.05	0
0.95	0.05	0
0.983333	0.05	0
0.0166667	0.0833333	0
0.05	0.0833333	0
0.0833333	0.0833333	0
0.116667	0.0833333	0
0.15	0.0833333	0
0.183333	0.0833333	0
0.216667	0.0833333	0
0.25	0.0833333	0
0.283333	0.0833333	0
0.316667	0.0833333	0
0.35	0.0833333	0
0.383333	0.0833333	0
0.416667	0.0833333	0
0.45	0.0833333	0
0.483333	0.0833333	0
0.516667	0.0833333	0
0.55	0.0833333	0
0.583333	0.0833333	0
0.616667	0.0833333	0
0.65	0.0833333	0
0.683333	0.0833333	0
0.716667	0.0833333	0
0.75	0.0833333	0
0.783333	0.0833333	0
0.816667	0.0833333	0
0.85	0.0833333	0
0.883333	0.0833333	0
0.916667	0.0833333	0
0.95	0.0833333	0
0.983333	0.0833333	0
0.0166667	0.116667	0
0.05	0.116667	0
0.0833333	0.116667	0
0.116667	0.116667	0
0.15	0.116667	0
0.183333	0.116667	0
0.216667	0.116667	0
0.25	0.116667	0
0.283333	0.116667	0
0.316667	0.116667	0
0.35	0.116667	0
0.383333	0.116667	0
0.416667	0.116667	0
0.45	0.116667	0
0.483333	0.116667	0
0.516667	0.116667	0
0.55	0.116667	0
0.583333	0.116667	0
0.616667	0.116667	0
0.65	0.116667	0
0.683333	0.116667	0
0.716667	0.116667	0
0.75	0.116667	0
0.783333	0.116667	0
0.816667	0.116667	0
0.85	0.116667	0
0.883333	0.116667	0
0.916667	0.116667	0
0.95	0.116667	0
0.983333	0.116667	0
1	0	0
1	0.0333333	0
1	0.0666667	0
1	0.1	0
1	0.133333	0
POINT_DATA 806
SCALARS Index int 1
LOOKUP_TABLE default
1455
1456
1457
1458
1459
1460
1461
1462
1463
1464
1465
1466
1467
1468
1469
1470
1471
1472
1473
1474
1475
1476
1477
1478
1479
1480
1481
1482
1483
1484
1485
1486
1487
1488
1489
1490
1491
1492
1493
1494
1495
1496
1497
1498
1499
1500
1501
1502
1503
1504
1505
1506
1507
1508
1509
1510
1511
1512
1513
1514
1515
1516
1517
1518
1519
1520
1521
1522
1523
1524
1525
1526
1527
1528
1529
1530
1531
1532
1533
1534
1535
1536
1537
1538
1539
1540
1541
1542
1543
1544
1545
1546
1547
1548
1549
1550
1551
1552
1553
1554
1555
1556
1557
1558
1559
1560
1561
1562
1563
1564
1565
1566
1567
1568
1569
1570
1571
1572
1573
1574
1575
1576
1577
1578
1579
1580
1581
1582
1583
1584
1585
1586
1587
1588
1589
1590
1591
1592
1593
1594
1595
1596
1597
1598
1599
1600
1601
1602
1603
1604
1605
1606
1607
1608
1609
1610
1611
1612
1613
1614
1615
1616
1617
1618
1619
1620
1621
1622
1623
1624
1625
1626
1627
1628
1629
1630
1631
1632
1633
1634
1635
1636
1637
1638
1639
1640
1641
1642
1643
1644
1645
1646
1647
1648
1649
1650
1651
1652
1653
1654
1655
1656
1657
1658
1659
1660
1661
1662
1663
1664
1665
1666
1667
1668
1669
1670
1671
1672
1673
1674
1675
1676
1677
1678
1679
1680
1681
1682
1683
1684
1685
1686
1687
1688
1689
1690
1691
1692
1693
1694
1695
1696
1697
1698
1699
1700
1701
1702
1703
1704
1705
1706
1707
1708
1709
1710
1711
1712
1713
1714
1715
1716
1717
1718
1719
1720
1721
1722
1723
1724
1725
1726
1727
1728
1729
1730
1731
1732
1733
1734
1735
1736
1737
1738
1739
1740
1741
1742
1743
1744
1745
1746
1747
1748
1749
1750
1751
1752
1753
1754
1755
1756
1757
1758
1759
1760
1761
1762
1763
1764
1765
1766
1767
1768
1769
1770
1771
1772
1773
1774
1775
1776
1777
1778
1779
1780
1781
1782
1783
1784
1785
1786
1787
1788
1789
1790
1791
1792
1793
1794
1795
1796
1797
1798
1799
1800
1801
1802
1803
1804
1805
1806
1807
1808
1809
1810
1811
1812
1813
1814
1815
1816
1817
1818
1819
1820
1821
1822
1823
1824
1825
1826
1827
1828
1829
1830
1831
1832
1833
1834
1835
1836
1837
1838
1839
1840
1841
1842
1843
1844
1845
1846
1847
1848
1849
1850
1851
1852
1853
1854
1855
1856
1857
1858
1859
1860
1861
1862
1863
1864
1865
1866
1867
1868
1869
1870
1871
1872
1873
1874
1875
1876
1877
1878
1879
1880
1881
1882
1883
1884
1885
1886
1887
1888
1889
1890
1891
1892
1893
1894
1895
1896
1897
1898
1899
1900
1901
1902
1903
1904
1905
1906
1907
1908
1909
1910
1911
1912
1913
1914
1915
1916
1917
1918
1919
356
357
358
359
386
387
388
389
416
417
418
419
446
447
448
449
825
826
827
828
829
830
831
832
833
834
835
836
837
838
839
840
841
842
843
844
845
846
847
848
849
850
851
852
853
854
855
856
857
858
859
860
861
862
863
864
865
866
867
868
869
870
871
872
873
874
875
876
877
878
879
880
881
882
883
884
885
886
887
888
889
890
891
892
893
894
895
896
897
898
899
900
901
902
903
904
905
906
907
908
909
910
911
912
913
914
915
916
917
918
919
920
921
922
923
924
925
926
927
928
929
930
931
932
933
934
935
936
937
938
939
940
941
942
943
944
986
987
988
989
1016
1017
1018
1019
1046
1047
1048
1049
1076
1077
1078
1079
1106
1107
1108
1109
1136
1137
1138
1139
1166
1167
1168
1169
1196
1197
1198
1199
1226
1227
1228
1229
1256
1257
1258
1259
1286
1287
1288
1289
1316
1317
1318
1319
1346
1347
1348
1349
1376
1377
1378
1379
1406
1407
1408
1409
1436
1437
1438
1439
1946
1947
1948
1949
1976
1977
1978
1979
2006
2007
2008
2009
2036
2037
2038
2039
2385
2386
2387
2388
2389
2390
2391
2392
2393
2394
2395
2396
2397
2398
2399
2400
2401
2402
2403
2404
2405
2406
2407
2408
2409
2410
2411
2412
2413
2414
2415
2416
2417
2418
2419
2420
2421
2422
2423
2424
2425
2426
2427
2428
2429
2430
2431
2432
2433
2434
2435
2436
2437
2438
2439
2440
2441
2442
2443
2444
2445
2446
2447
2448
2449
2450
2451
2452
2453
2454
2455
2456
2457
2458
2459
2460
2461
2462
2463
2464
2465
2466
2467
2468
2469
2470
2471
2472
2473
2474
2475
2476
2477
2478
2479
2480
2481
2482
2483
2484
2485
2486
2487
2488
2489
2490
2491
2492
2493
2494
2495
2496
2497
2498
2499
2500
2501
2502
2503
2504
2835
2836
2837
2838
2839
