# vtk DataFile Version 2.0
particlePositions
ASCII
DATASET POLYDATA
POINTS 806 float
-0.983333	0.0166667	0
-0.95	0.0166667	0
-0.916667	0.0166667	0
-0.883333	0.0166667	0
-0.85	0.0166667	0
-0.816667	0.0166667	0
-0.783333	0.0166667	0
-0.75	0.0166667	0
-0.716667	0.0166667	0
-0.683333	0.0166667	0
-0.65	0.0166667	0
-0.616667	0.0166667	0
-0.583333	0.0166667	0
-0.55	0.0166667	0
-0.516667	0.0166667	0
-0.483333	0.0166667	0
-0.45	0.0166667	0
-0.416667	0.0166667	0
-0.383333	0.0166667	0
-0.35	0.0166667	0
-0.316667	0.0166667	0
-0.283333	0.0166667	0
-0.25	0.0166667	0
-0.216667	0.0166667	0
-0.183333	0.0166667	0
-0.15	0.0166667	0
-0.116667	0.0166667	0
-0.0833333	0.0166667	0
-0.05	0.0166667	0
-0.0166667	0.0166667	0
-0.983333	0.05	0
-0.95	0.05	0
-0.916667	0.05	0
-0.883333	0.05	0
-0.85	0.05	0
-0.816667	0.05	0
-0.783333	0.05	0
-0.75	0.05	0
-0.716667	0.05	0
-0.683333	0.05	0
-0.65	0.05	0
-0.616667	0.05	0
-0.583333	0.05	0
-0.55	0.05	0
-0.516667	0.05	0
-0.483333	0.05	0
-0.45	0.05	0
-0.416667	0.05	0
-0.383333	0.05	0
-0.35	0.05	0
-0.316667	0.05	0
-0.283333	0.05	0
-0.25	0.05	0
-0.216667	0.05	0
-0.183333	0.05	0
-0.15	0.05	0
-0.116667	0.05	0
-0.0833333	0.05	0
-0.05	0.05	0
-0.0166667	0.05	0
-0.983333	0.0833333	0
-0.95	0.0833333	0
-0.916667	0.0833333	0
-0.883333	0.0833333	0
-0.85	0.0833333	0
-0.816667	0.0833333	0
-0.783333	0.0833333	0
-0.75	0.0833333	0
-0.716667	0.0833333	0
-0.683333	0.0833333	0
-0.65	0.0833333	0
-0.616667	0.0833333	0
-0.583333	0.0833333	0
-0.55	0.0833333	0
-0.516667	0.0833333	0
-0.483333	0.0833333	0
-0.45	0.0833333	0
-0.416667	0.0833333	0
-0.383333	0.0833333	0
-0.35	0.0833333	0
-0.316667	0.0833333	0
-0.283333	0.0833333	0
-0.25	0.0833333	0
-0.216667	0.0833333	0
-0.183333	0.0833333	0
-0.15	0.0833333	0
-0.116667	0.0833333	0
-0.0833333	0.0833333	0
-0.05	0.0833333	0
-0.0166667	0.0833333	0
-0.983333	0.116667	0
-0.95	0.116667	0
-0.916667	0.116667	0
-0.883333	0.116667	0
-0.85	0.116667	0
-0.816667	0.116667	0
-0.783333	0.116667	0
-0.75	0.116667	0
-0.716667	0.116667	0
-0.683333	0.116667	0
-0.65	0.116667	0
-0.616667	0.116667	0
-0.583333	0.116667	0
-0.55	0.116667	0
-0.516667	0.116667	0
-0.483333	0.116667	0
-0.45	0.116667	0
-0.416667	0.116667	0
-0.383333	0.116667	0
-0.35	0.116667	0
-0.316667	0.116667	0
-0.283333	0.116667	0
-0.25	0.116667	0
-0.216667	0.116667	0
-0.183333	0.116667	0
-0.15	0.116667	0
-0.116667	0.116667	0
-0.0833333	0.116667	0
-0.05	0.116667	0
-0.0166667	0.116667	0
-0.983333	0.15	0
-0.95	0.15	0
-0.916667	0.15	0
-0.883333	0.15	0
-0.85	0.15	0
-0.816667	0.15	0
-0.783333	0.15	0
-0.75	0.15	0
-0.716667	0.15	0
-0.683333	0.15	0
-0.65	0.15	0
-0.616667	0.15	0
-0.583333	0.15	0
-0.55	0.15	0
-0.516667	0.15	0
-0.483333	0.15	0
-0.45	0.15	0
-0.416667	0.15	0
-0.383333	0.15	0
-0.35	0.15	0
-0.316667	0.15	0
-0.283333	0.15	0
-0.25	0.15	0
-0.216667	0.15	0
-0.183333	0.15	0
-0.15	0.15	0
-0.116667	0.15	0
-0.0833333	0.15	0
-0.05	0.15	0
-0.0166667	0.15	0
-0.983333	0.183333	0
-0.95	0.183333	0
-0.916667	0.183333	0
-0.883333	0.183333	0
-0.85	0.183333	0
-0.816667	0.183333	0
-0.783333	0.183333	0
-0.75	0.183333	0
-0.716667	0.183333	0
-0.683333	0.183333	0
-0.65	0.183333	0
-0.616667	0.183333	0
-0.583333	0.183333	0
-0.55	0.183333	0
-0.516667	0.183333	0
-0.483333	0.183333	0
-0.45	0.183333	0
-0.416667	0.183333	0
-0.383333	0.183333	0
-0.35	0.183333	0
-0.316667	0.183333	0
-0.283333	0.183333	0
-0.25	0.183333	0
-0.216667	0.183333	0
-0.183333	0.183333	0
-0.15	0.183333	0
-0.116667	0.183333	0
-0.0833333	0.183333	0
-0.05	0.183333	0
-0.0166667	0.183333	0
-0.983333	0.216667	0
-0.95	0.216667	0
-0.916667	0.216667	0
-0.883333	0.216667	0
-0.85	0.216667	0
-0.816667	0.216667	0
-0.783333	0.216667	0
-0.75	0.216667	0
-0.716667	0.216667	0
-0.683333	0.216667	0
-0.65	0.216667	0
-0.616667	0.216667	0
-0.583333	0.216667	0
-0.55	0.216667	0
-0.516667	0.216667	0
-0.483333	0.216667	0
-0.45	0.216667	0
-0.416667	0.216667	0
-0.383333	0.216667	0
-0.35	0.216667	0
-0.316667	0.216667	0
-0.283333	0.216667	0
-0.25	0.216667	0
-0.216667	0.216667	0
-0.183333	0.216667	0
-0.15	0.216667	0
-0.116667	0.216667	0
-0.0833333	0.216667	0
-0.05	0.216667	0
-0.0166667	0.216667	0
-0.983333	0.25	0
-0.95	0.25	0
-0.916667	0.25	0
-0.883333	0.25	0
-0.85	0.25	0
-0.816667	0.25	0
-0.783333	0.25	0
-0.75	0.25	0
-0.716667	0.25	0
-0.683333	0.25	0
-0.65	0.25	0
-0.616667	0.25	0
-0.583333	0.25	0
-0.55	0.25	0
-0.516667	0.25	0
-0.483333	0.25	0
-0.45	0.25	0
-0.416667	0.25	0
-0.383333	0.25	0
-0.35	0.25	0
-0.316667	0.25	0
-0.283333	0.25	0
-0.25	0.25	0
-0.216667	0.25	0
-0.183333	0.25	0
-0.15	0.25	0
-0.116667	0.25	0
-0.0833333	0.25	0
-0.05	0.25	0
-0.0166667	0.25	0
-0.983333	0.283333	0
-0.95	0.283333	0
-0.916667	0.283333	0
-0.883333	0.283333	0
-0.85	0.283333	0
-0.816667	0.283333	0
-0.783333	0.283333	0
-0.75	0.283333	0
-0.716667	0.283333	0
-0.683333	0.283333	0
-0.65	0.283333	0
-0.616667	0.283333	0
-0.583333	0.283333	0
-0.55	0.283333	0
-0.516667	0.283333	0
-0.483333	0.283333	0
-0.45	0.283333	0
-0.416667	0.283333	0
-0.383333	0.283333	0
-0.35	0.283333	0
-0.316667	0.283333	0
-0.283333	0.283333	0
-0.25	0.283333	0
-0.216667	0.283333	0
-0.183333	0.283333	0
-0.15	0.283333	0
-0.116667	0.283333	0
-0.0833333	0.283333	0
-0.05	0.283333	0
-0.0166667	0.283333	0
-0.983333	0.316667	0
-0.95	0.316667	0
-0.916667	0.316667	0
-0.883333	0.316667	0
-0.85	0.316667	0
-0.816667	0.316667	0
-0.783333	0.316667	0
-0.75	0.316667	0
-0.716667	0.316667	0
-0.683333	0.316667	0
-0.65	0.316667	0
-0.616667	0.316667	0
-0.583333	0.316667	0
-0.55	0.316667	0
-0.516667	0.316667	0
-0.483333	0.316667	0
-0.45	0.316667	0
-0.416667	0.316667	0
-0.383333	0.316667	0
-0.35	0.316667	0
-0.316667	0.316667	0
-0.283333	0.316667	0
-0.25	0.316667	0
-0.216667	0.316667	0
-0.183333	0.316667	0
-0.15	0.316667	0
-0.116667	0.316667	0
-0.0833333	0.316667	0
-0.05	0.316667	0
-0.0166667	0.316667	0
-0.983333	0.35	0
-0.95	0.35	0
-0.916667	0.35	0
-0.883333	0.35	0
-0.85	0.35	0
-0.816667	0.35	0
-0.783333	0.35	0
-0.75	0.35	0
-0.716667	0.35	0
-0.683333	0.35	0
-0.65	0.35	0
-0.616667	0.35	0
-0.583333	0.35	0
-0.55	0.35	0
-0.516667	0.35	0
-0.483333	0.35	0
-0.45	0.35	0
-0.416667	0.35	0
-0.383333	0.35	0
-0.35	0.35	0
-0.316667	0.35	0
-0.283333	0.35	0
-0.25	0.35	0
-0.216667	0.35	0
-0.183333	0.35	0
-0.15	0.35	0
-0.116667	0.35	0
-0.0833333	0.35	0
-0.05	0.35	0
-0.0166667	0.35	0
-0.983333	0.383333	0
-0.95	0.383333	0
-0.916667	0.383333	0
-0.883333	0.383333	0
-0.85	0.383333	0
-0.816667	0.383333	0
-0.783333	0.383333	0
-0.75	0.383333	0
-0.716667	0.383333	0
-0.683333	0.383333	0
-0.65	0.383333	0
-0.616667	0.383333	0
-0.583333	0.383333	0
-0.55	0.383333	0
-0.516667	0.383333	0
-0.483333	0.383333	0
-0.45	0.383333	0
-0.416667	0.383333	0
-0.383333	0.383333	0
-0.35	0.383333	0
-0.316667	0.383333	0
-0.283333	0.383333	0
-0.25	0.383333	0
-0.216667	0.383333	0
-0.183333	0.383333	0
-0.15	0.383333	0
-0.116667	0.383333	0
-0.0833333	0.383333	0
-0.05	0.383333	0
-0.0166667	0.383333	0
-0.983333	0.416667	0
-0.95	0.416667	0
-0.916667	0.416667	0
-0.883333	0.416667	0
-0.85	0.416667	0
-0.816667	0.416667	0
-0.783333	0.416667	0
-0.75	0.416667	0
-0.716667	0.416667	0
-0.683333	0.416667	0
-0.65	0.416667	0
-0.616667	0.416667	0
-0.583333	0.416667	0
-0.55	0.416667	0
-0.516667	0.416667	0
-0.483333	0.416667	0
-0.45	0.416667	0
-0.416667	0.416667	0
-0.383333	0.416667	0
-0.35	0.416667	0
-0.316667	0.416667	0
-0.283333	0.416667	0
-0.25	0.416667	0
-0.216667	0.416667	0
-0.183333	0.416667	0
-0.15	0.416667	0
-0.116667	0.416667	0
-0.0833333	0.416667	0
-0.05	0.416667	0
-0.0166667	0.416667	0
-0.983333	0.45	0
-0.95	0.45	0
-0.916667	0.45	0
-0.883333	0.45	0
-0.85	0.45	0
-0.816667	0.45	0
-0.783333	0.45	0
-0.75	0.45	0
-0.716667	0.45	0
-0.683333	0.45	0
-0.65	0.45	0
-0.616667	0.45	0
-0.583333	0.45	0
-0.55	0.45	0
-0.516667	0.45	0
-0.483333	0.45	0
-0.45	0.45	0
-0.416667	0.45	0
-0.383333	0.45	0
-0.35	0.45	0
-0.316667	0.45	0
-0.283333	0.45	0
-0.25	0.45	0
-0.216667	0.45	0
-0.183333	0.45	0
-0.15	0.45	0
-0.116667	0.45	0
-0.0833333	0.45	0
-0.05	0.45	0
-0.0166667	0.45	0
-0.983333	0.483333	0
-0.95	0.483333	0
-0.916667	0.483333	0
-0.883333	0.483333	0
-0.85	0.483333	0
-0.816667	0.483333	0
-0.783333	0.483333	0
-0.75	0.483333	0
-0.716667	0.483333	0
-0.683333	0.483333	0
-0.65	0.483333	0
-0.616667	0.483333	0
-0.583333	0.483333	0
-0.55	0.483333	0
-0.516667	0.483333	0
-0.483333	0.483333	0
-0.45	0.483333	0
-0.416667	0.483333	0
-0.383333	0.483333	0
-0.35	0.483333	0
-0.316667	0.483333	0
-0.283333	0.483333	0
-0.25	0.483333	0
-0.216667	0.483333	0
-0.183333	0.483333	0
-0.15	0.483333	0
-0.116667	0.483333	0
-0.0833333	0.483333	0
-0.05	0.483333	0
-0.0166667	0.483333	0
-1	0.5	0
-1	0.466667	0
-1	0.433333	0
-1	0.4	0
-1	0.366667	0
-1	0.333333	0
-1	0.3	0
-1	0.266667	0
-1	0.233333	0
-1	0.2	0
-1	0.166667	0
-1	0.133333	0
-1	0.1	0
-1	0.0666667	0
-1	0.0333333	0
-0.983333	-0.116667	0
-0.95	-0.116667	0
-0.916667	-0.116667	0
-0.883333	-0.116667	0
-0.85	-0.116667	0
-0.816667	-0.116667	0
-0.783333	-0.116667	0
-0.75	-0.116667	0
-0.716667	-0.116667	0
-0.683333	-0.116667	0
-0.65	-0.116667	0
-0.616667	-0.116667	0
-0.583333	-0.116667	0
-0.55	-0.116667	0
-0.516667	-0.116667	0
-0.483333	-0.116667	0
-0.45	-0.116667	0
-0.416667	-0.116667	0
-0.383333	-0.116667	0
-0.35	-0.116667	0
-0.316667	-0.116667	0
-0.283333	-0.116667	0
-0.25	-0.116667	0
-0.216667	-0.116667	0
-0.183333	-0.116667	0
-0.15	-0.116667	0
-0.116667	-0.116667	0
-0.0833333	-0.116667	0
-0.05	-0.116667	0
-0.0166667	-0.116667	0
-0.983333	-0.0833333	0
-0.95	-0.0833333	0
-0.916667	-0.0833333	0
-0.883333	-0.0833333	0
-0.85	-0.0833333	0
-0.816667	-0.0833333	0
-0.783333	-0.0833333	0
-0.75	-0.0833333	0
-0.716667	-0.0833333	0
-0.683333	-0.0833333	0
-0.65	-0.0833333	0
-0.616667	-0.0833333	0
-0.583333	-0.0833333	0
-0.55	-0.0833333	0
-0.516667	-0.0833333	0
-0.483333	-0.0833333	0
-0.45	-0.0833333	0
-0.416667	-0.0833333	0
-0.383333	-0.0833333	0
-0.35	-0.0833333	0
-0.316667	-0.0833333	0
-0.283333	-0.0833333	0
-0.25	-0.0833333	0
-0.216667	-0.0833333	0
-0.183333	-0.0833333	0
-0.15	-0.0833333	0
-0.116667	-0.0833333	0
-0.0833333	-0.0833333	0
-0.05	-0.0833333	0
-0.0166667	-0.0833333	0
-0.983333	-0.05	0
-0.95	-0.05	0
-0.916667	-0.05	0
-0.883333	-0.05	0
-0.85	-0.05	0
-0.816667	-0.05	0
-0.783333	-0.05	0
-0.75	-0.05	0
-0.716667	-0.05	0
-0.683333	-0.05	0
-0.65	-0.05	0
-0.616667	-0.05	0
-0.583333	-0.05	0
-0.55	-0.05	0
-0.516667	-0.05	0
-0.483333	-0.05	0
-0.45	-0.05	0
-0.416667	-0.05	0
-0.383333	-0.05	0
-0.35	-0.05	0
-0.316667	-0.05	0
-0.283333	-0.05	0
-0.25	-0.05	0
-0.216667	-0.05	0
-0.183333	-0.05	0
-0.15	-0.05	0
-0.116667	-0.05	0
-0.0833333	-0.05	0
-0.05	-0.05	0
-0.0166667	-0.05	0
-0.983333	-0.0166667	0
-0.95	-0.0166667	0
-0.916667	-0.0166667	0
-0.883333	-0.0166667	0
-0.85	-0.0166667	0
-0.816667	-0.0166667	0
-0.783333	-0.0166667	0
-0.75	-0.0166667	0
-0.716667	-0.0166667	0
-0.683333	-0.0166667	0
-0.65	-0.0166667	0
-0.616667	-0.0166667	0
-0.583333	-0.0166667	0
-0.55	-0.0166667	0
-0.516667	-0.0166667	0
-0.483333	-0.0166667	0
-0.45	-0.0166667	0
-0.416667	-0.0166667	0
-0.383333	-0.0166667	0
-0.35	-0.0166667	0
-0.316667	-0.0166667	0
-0.283333	-0.0166667	0
-0.25	-0.0166667	0
-0.216667	-0.0166667	0
-0.183333	-0.0166667	0
-0.15	-0.0166667	0
-0.116667	-0.0166667	0
-0.0833333	-0.0166667	0
-0.05	-0.0166667	0
-0.0166667	-0.0166667	0
-1	0	0
-1	-0.0333333	0
-1	-0.0666667	0
-1	-0.1	0
-1	-0.133333	0
0.0166667	-0.116667	0
0.05	-0.116667	0
0.0833333	-0.116667	0
0.116667	-0.116667	0
0.0166667	-0.0833333	0
0.05	-0.0833333	0
0.0833333	-0.0833333	0
0.116667	-0.0833333	0
0.0166667	-0.05	0
0.05	-0.05	0
0.0833333	-0.05	0
0.116667	-0.05	0
0.0166667	-0.0166667	0
0.05	-0.0166667	0
0.0833333	-0.0166667	0
0.116667	-0.0166667	0
0.0166667	0.0166667	0
0.05	0.0166667	0
0.0833333	0.0166667	0
0.116667	0.0166667	0
0.0166667	0.05	0
0.05	0.05	0
0.0833333	0.05	0
0.116667	0.05	0
0.0166667	0.0833333	0
0.05	0.0833333	0
0.0833333	0.0833333	0
0.116667	0.0833333	0
0.0166667	0.116667	0
0.05	0.116667	0
0.0833333	0.116667	0
0.116667	0.116667	0
0.0166667	0.15	0
0.05	0.15	0
0.0833333	0.15	0
0.116667	0.15	0
0.0166667	0.183333	0
0.05	0.183333	0
0.0833333	0.183333	0
0.116667	0.183333	0
0.0166667	0.216667	0
0.05	0.216667	0
0.0833333	0.216667	0
0.116667	0.216667	0
0.0166667	0.25	0
0.05	0.25	0
0.0833333	0.25	0
0.116667	0.25	0
0.0166667	0.283333	0
0.05	0.283333	0
0.0833333	0.283333	0
0.116667	0.283333	0
0.0166667	0.316667	0
0.05	0.316667	0
0.0833333	0.316667	0
0.116667	0.316667	0
0.0166667	0.35	0
0.05	0.35	0
0.0833333	0.35	0
0.116667	0.35	0
0.0166667	0.383333	0
0.05	0.383333	0
0.0833333	0.383333	0
0.116667	0.383333	0
0.0166667	0.416667	0
0.05	0.416667	0
0.0833333	0.416667	0
0.116667	0.416667	0
0.0166667	0.45	0
0.05	0.45	0
0.0833333	0.45	0
0.116667	0.45	0
0.0166667	0.483333	0
0.05	0.483333	0
0.0833333	0.483333	0
0.116667	0.483333	0
-0.983333	0.516667	0
-0.95	0.516667	0
-0.916667	0.516667	0
-0.883333	0.516667	0
-0.85	0.516667	0
-0.816667	0.516667	0
-0.783333	0.516667	0
-0.75	0.516667	0
-0.716667	0.516667	0
-0.683333	0.516667	0
-0.65	0.516667	0
-0.616667	0.516667	0
-0.583333	0.516667	0
-0.55	0.516667	0
-0.516667	0.516667	0
-0.483333	0.516667	0
-0.45	0.516667	0
-0.416667	0.516667	0
-0.383333	0.516667	0
-0.35	0.516667	0
-0.316667	0.516667	0
-0.283333	0.516667	0
-0.25	0.516667	0
-0.216667	0.516667	0
-0.183333	0.516667	0
-0.15	0.516667	0
-0.116667	0.516667	0
-0.0833333	0.516667	0
-0.05	0.516667	0
-0.0166667	0.516667	0
-0.983333	0.55	0
-0.95	0.55	0
-0.916667	0.55	0
-0.883333	0.55	0
-0.85	0.55	0
-0.816667	0.55	0
-0.783333	0.55	0
-0.75	0.55	0
-0.716667	0.55	0
-0.683333	0.55	0
-0.65	0.55	0
-0.616667	0.55	0
-0.583333	0.55	0
-0.55	0.55	0
-0.516667	0.55	0
-0.483333	0.55	0
-0.45	0.55	0
-0.416667	0.55	0
-0.383333	0.55	0
-0.35	0.55	0
-0.316667	0.55	0
-0.283333	0.55	0
-0.25	0.55	0
-0.216667	0.55	0
-0.183333	0.55	0
-0.15	0.55	0
-0.116667	0.55	0
-0.0833333	0.55	0
-0.05	0.55	0
-0.0166667	0.55	0
-0.983333	0.583333	0
-0.95	0.583333	0
-0.916667	0.583333	0
-0.883333	0.583333	0
-0.85	0.583333	0
-0.816667	0.583333	0
-0.783333	0.583333	0
-0.75	0.583333	0
-0.716667	0.583333	0
-0.683333	0.583333	0
-0.65	0.583333	0
-0.616667	0.583333	0
-0.583333	0.583333	0
-0.55	0.583333	0
-0.516667	0.583333	0
-0.483333	0.583333	0
-0.45	0.583333	0
-0.416667	0.583333	0
-0.383333	0.583333	0
-0.35	0.583333	0
-0.316667	0.583333	0
-0.283333	0.583333	0
-0.25	0.583333	0
-0.216667	0.583333	0
-0.183333	0.583333	0
-0.15	0.583333	0
-0.116667	0.583333	0
-0.0833333	0.583333	0
-0.05	0.583333	0
-0.0166667	0.583333	0
-0.983333	0.616667	0
-0.95	0.616667	0
-0.916667	0.616667	0
-0.883333	0.616667	0
-0.85	0.616667	0
-0.816667	0.616667	0
-0.783333	0.616667	0
-0.75	0.616667	0
-0.716667	0.616667	0
-0.683333	0.616667	0
-0.65	0.616667	0
-0.616667	0.616667	0
-0.583333	0.616667	0
-0.55	0.616667	0
-0.516667	0.616667	0
-0.483333	0.616667	0
-0.45	0.616667	0
-0.416667	0.616667	0
-0.383333	0.616667	0
-0.35	0.616667	0
-0.316667	0.616667	0
-0.283333	0.616667	0
-0.25	0.616667	0
-0.216667	0.616667	0
-0.183333	0.616667	0
-0.15	0.616667	0
-0.116667	0.616667	0
-0.0833333	0.616667	0
-0.05	0.616667	0
-0.0166667	0.616667	0
-1	0.633333	0
-1	0.6	0
-1	0.566667	0
-1	0.533333	0
0.0166667	0.516667	0
0.05	0.516667	0
0.0833333	0.516667	0
0.116667	0.516667	0
0.0166667	0.55	0
0.05	0.55	0
0.0833333	0.55	0
0.116667	0.55	0
0.0166667	0.583333	0
0.05	0.583333	0
0.0833333	0.583333	0
0.116667	0.583333	0
0.0166667	0.616667	0
0.05	0.616667	0
0.0833333	0.616667	0
0.116667	0.616667	0
POINT_DATA 806
SCALARS Index int 1
LOOKUP_TABLE default
1920
1921
1922
1923
1924
1925
1926
1927
1928
1929
1930
1931
1932
1933
1934
1935
1936
1937
1938
1939
1940
1941
1942
1943
1944
1945
1946
1947
1948
1949
1950
1951
1952
1953
1954
1955
1956
1957
1958
1959
1960
1961
1962
1963
1964
1965
1966
1967
1968
1969
1970
1971
1972
1973
1974
1975
1976
1977
1978
1979
1980
1981
1982
1983
1984
1985
1986
1987
1988
1989
1990
1991
1992
1993
1994
1995
1996
1997
1998
1999
2000
2001
2002
2003
2004
2005
2006
2007
2008
2009
2010
2011
2012
2013
2014
2015
2016
2017
2018
2019
2020
2021
2022
2023
2024
2025
2026
2027
2028
2029
2030
2031
2032
2033
2034
2035
2036
2037
2038
2039
2040
2041
2042
2043
2044
2045
2046
2047
2048
2049
2050
2051
2052
2053
2054
2055
2056
2057
2058
2059
2060
2061
2062
2063
2064
2065
2066
2067
2068
2069
2070
2071
2072
2073
2074
2075
2076
2077
2078
2079
2080
2081
2082
2083
2084
2085
2086
2087
2088
2089
2090
2091
2092
2093
2094
2095
2096
2097
2098
2099
2100
2101
2102
2103
2104
2105
2106
2107
2108
2109
2110
2111
2112
2113
2114
2115
2116
2117
2118
2119
2120
2121
2122
2123
2124
2125
2126
2127
2128
2129
2130
2131
2132
2133
2134
2135
2136
2137
2138
2139
2140
2141
2142
2143
2144
2145
2146
2147
2148
2149
2150
2151
2152
2153
2154
2155
2156
2157
2158
2159
2160
2161
2162
2163
2164
2165
2166
2167
2168
2169
2170
2171
2172
2173
2174
2175
2176
2177
2178
2179
2180
2181
2182
2183
2184
2185
2186
2187
2188
2189
2190
2191
2192
2193
2194
2195
2196
2197
2198
2199
2200
2201
2202
2203
2204
2205
2206
2207
2208
2209
2210
2211
2212
2213
2214
2215
2216
2217
2218
2219
2220
2221
2222
2223
2224
2225
2226
2227
2228
2229
2230
2231
2232
2233
2234
2235
2236
2237
2238
2239
2240
2241
2242
2243
2244
2245
2246
2247
2248
2249
2250
2251
2252
2253
2254
2255
2256
2257
2258
2259
2260
2261
2262
2263
2264
2265
2266
2267
2268
2269
2270
2271
2272
2273
2274
2275
2276
2277
2278
2279
2280
2281
2282
2283
2284
2285
2286
2287
2288
2289
2290
2291
2292
2293
2294
2295
2296
2297
2298
2299
2300
2301
2302
2303
2304
2305
2306
2307
2308
2309
2310
2311
2312
2313
2314
2315
2316
2317
2318
2319
2320
2321
2322
2323
2324
2325
2326
2327
2328
2329
2330
2331
2332
2333
2334
2335
2336
2337
2338
2339
2340
2341
2342
2343
2344
2345
2346
2347
2348
2349
2350
2351
2352
2353
2354
2355
2356
2357
2358
2359
2360
2361
2362
2363
2364
2365
2366
2367
2368
2369
2370
2371
2372
2373
2374
2375
2376
2377
2378
2379
2380
2381
2382
2383
2384
1320
1321
1322
1323
1324
1325
1326
1327
1328
1329
1330
1331
1332
1333
1334
1335
1336
1337
1338
1339
1340
1341
1342
1343
1344
1345
1346
1347
1348
1349
1350
1351
1352
1353
1354
1355
1356
1357
1358
1359
1360
1361
1362
1363
1364
1365
1366
1367
1368
1369
1370
1371
1372
1373
1374
1375
1376
1377
1378
1379
1380
1381
1382
1383
1384
1385
1386
1387
1388
1389
1390
1391
1392
1393
1394
1395
1396
1397
1398
1399
1400
1401
1402
1403
1404
1405
1406
1407
1408
1409
1410
1411
1412
1413
1414
1415
1416
1417
1418
1419
1420
1421
1422
1423
1424
1425
1426
1427
1428
1429
1430
1431
1432
1433
1434
1435
1436
1437
1438
1439
1440
1441
1442
1443
1444
1785
1786
1787
1788
1815
1816
1817
1818
1845
1846
1847
1848
1875
1876
1877
1878
2385
2386
2387
2388
2415
2416
2417
2418
2445
2446
2447
2448
2475
2476
2477
2478
2505
2506
2507
2508
2535
2536
2537
2538
2565
2566
2567
2568
2595
2596
2597
2598
2625
2626
2627
2628
2655
2656
2657
2658
2685
2686
2687
2688
2715
2716
2717
2718
2745
2746
2747
2748
2775
2776
2777
2778
2805
2806
2807
2808
2850
2851
2852
2853
2854
2855
2856
2857
2858
2859
2860
2861
2862
2863
2864
2865
2866
2867
2868
2869
2870
2871
2872
2873
2874
2875
2876
2877
2878
2879
2880
2881
2882
2883
2884
2885
2886
2887
2888
2889
2890
2891
2892
2893
2894
2895
2896
2897
2898
2899
2900
2901
2902
2903
2904
2905
2906
2907
2908
2909
2910
2911
2912
2913
2914
2915
2916
2917
2918
2919
2920
2921
2922
2923
2924
2925
2926
2927
2928
2929
2930
2931
2932
2933
2934
2935
2936
2937
2938
2939
2940
2941
2942
2943
2944
2945
2946
2947
2948
2949
2950
2951
2952
2953
2954
2955
2956
2957
2958
2959
2960
2961
2962
2963
2964
2965
2966
2967
2968
2969
3341
3342
3343
3344
3345
3346
3347
3348
3375
3376
3377
3378
3405
3406
3407
3408
3435
3436
3437
3438
