# vtk DataFile Version 2.0
particlePositions
ASCII
DATASET POLYDATA
POINTS 806 float
0.0166667	0.0166667	0
0.05	0.0166667	0
0.0833333	0.0166667	0
0.116667	0.0166667	0
0.15	0.0166667	0
0.183333	0.0166667	0
0.216667	0.0166667	0
0.25	0.0166667	0
0.283333	0.0166667	0
0.316667	0.0166667	0
0.35	0.0166667	0
0.383333	0.0166667	0
0.416667	0.0166667	0
0.45	0.0166667	0
0.483333	0.0166667	0
0.516667	0.0166667	0
0.55	0.0166667	0
0.583333	0.0166667	0
0.616667	0.0166667	0
0.65	0.0166667	0
0.683333	0.0166667	0
0.716667	0.0166667	0
0.75	0.0166667	0
0.783333	0.0166667	0
0.816667	0.0166667	0
0.85	0.0166667	0
0.883333	0.0166667	0
0.916667	0.0166667	0
0.95	0.0166667	0
0.983333	0.0166667	0
0.0166667	0.05	0
0.05	0.05	0
0.0833333	0.05	0
0.116667	0.05	0
0.15	0.05	0
0.183333	0.05	0
0.216667	0.05	0
0.25	0.05	0
0.283333	0.05	0
0.316667	0.05	0
0.35	0.05	0
0.383333	0.05	0
0.416667	0.05	0
0.45	0.05	0
0.483333	0.05	0
0.516667	0.05	0
0.55	0.05	0
0.583333	0.05	0
0.616667	0.05	0
0.65	0.05	0
0.683333	0.05	0
0.716667	0.05	0
0.75	0.05	0
0.783333	0.05	0
0.816667	0.05	0
0.85	0.05	0
0.883333	0.05	0
0.916667	0.05	0
0.95	0.05	0
0.983333	0.05	0
0.0166667	0.0833333	0
0.05	0.0833333	0
0.0833333	0.0833333	0
0.116667	0.0833333	0
0.15	0.0833333	0
0.183333	0.0833333	0
0.216667	0.0833333	0
0.25	0.0833333	0
0.283333	0.0833333	0
0.316667	0.0833333	0
0.35	0.0833333	0
0.383333	0.0833333	0
0.416667	0.0833333	0
0.45	0.0833333	0
0.483333	0.0833333	0
0.516667	0.0833333	0
0.55	0.0833333	0
0.583333	0.0833333	0
0.616667	0.0833333	0
0.65	0.0833333	0
0.683333	0.0833333	0
0.716667	0.0833333	0
0.75	0.0833333	0
0.783333	0.0833333	0
0.816667	0.0833333	0
0.85	0.0833333	0
0.883333	0.0833333	0
0.916667	0.0833333	0
0.95	0.0833333	0
0.983333	0.0833333	0
0.0166667	0.116667	0
0.05	0.116667	0
0.0833333	0.116667	0
0.116667	0.116667	0
0.15	0.116667	0
0.183333	0.116667	0
0.216667	0.116667	0
0.25	0.116667	0
0.283333	0.116667	0
0.316667	0.116667	0
0.35	0.116667	0
0.383333	0.116667	0
0.416667	0.116667	0
0.45	0.116667	0
0.483333	0.116667	0
0.516667	0.116667	0
0.55	0.116667	0
0.583333	0.116667	0
0.616667	0.116667	0
0.65	0.116667	0
0.683333	0.116667	0
0.716667	0.116667	0
0.75	0.116667	0
0.783333	0.116667	0
0.816667	0.116667	0
0.85	0.116667	0
0.883333	0.116667	0
0.916667	0.116667	0
0.95	0.116667	0
0.983333	0.116667	0
0.0166667	0.15	0
0.05	0.15	0
0.0833333	0.15	0
0.116667	0.15	0
0.15	0.15	0
0.183333	0.15	0
0.216667	0.15	0
0.25	0.15	0
0.283333	0.15	0
0.316667	0.15	0
0.35	0.15	0
0.383333	0.15	0
0.416667	0.15	0
0.45	0.15	0
0.483333	0.15	0
0.516667	0.15	0
0.55	0.15	0
0.583333	0.15	0
0.616667	0.15	0
0.65	0.15	0
0.683333	0.15	0
0.716667	0.15	0
0.75	0.15	0
0.783333	0.15	0
0.816667	0.15	0
0.85	0.15	0
0.883333	0.15	0
0.916667	0.15	0
0.95	0.15	0
0.983333	0.15	0
0.0166667	0.183333	0
0.05	0.183333	0
0.0833333	0.183333	0
0.116667	0.183333	0
0.15	0.183333	0
0.183333	0.183333	0
0.216667	0.183333	0
0.25	0.183333	0
0.283333	0.183333	0
0.316667	0.183333	0
0.35	0.183333	0
0.383333	0.183333	0
0.416667	0.183333	0
0.45	0.183333	0
0.483333	0.183333	0
0.516667	0.183333	0
0.55	0.183333	0
0.583333	0.183333	0
0.616667	0.183333	0
0.65	0.183333	0
0.683333	0.183333	0
0.716667	0.183333	0
0.75	0.183333	0
0.783333	0.183333	0
0.816667	0.183333	0
0.85	0.183333	0
0.883333	0.183333	0
0.916667	0.183333	0
0.95	0.183333	0
0.983333	0.183333	0
0.0166667	0.216667	0
0.05	0.216667	0
0.0833333	0.216667	0
0.116667	0.216667	0
0.15	0.216667	0
0.183333	0.216667	0
0.216667	0.216667	0
0.25	0.216667	0
0.283333	0.216667	0
0.316667	0.216667	0
0.35	0.216667	0
0.383333	0.216667	0
0.416667	0.216667	0
0.45	0.216667	0
0.483333	0.216667	0
0.516667	0.216667	0
0.55	0.216667	0
0.583333	0.216667	0
0.616667	0.216667	0
0.65	0.216667	0
0.683333	0.216667	0
0.716667	0.216667	0
0.75	0.216667	0
0.783333	0.216667	0
0.816667	0.216667	0
0.85	0.216667	0
0.883333	0.216667	0
0.916667	0.216667	0
0.95	0.216667	0
0.983333	0.216667	0
0.0166667	0.25	0
0.05	0.25	0
0.0833333	0.25	0
0.116667	0.25	0
0.15	0.25	0
0.183333	0.25	0
0.216667	0.25	0
0.25	0.25	0
0.283333	0.25	0
0.316667	0.25	0
0.35	0.25	0
0.383333	0.25	0
0.416667	0.25	0
0.45	0.25	0
0.483333	0.25	0
0.516667	0.25	0
0.55	0.25	0
0.583333	0.25	0
0.616667	0.25	0
0.65	0.25	0
0.683333	0.25	0
0.716667	0.25	0
0.75	0.25	0
0.783333	0.25	0
0.816667	0.25	0
0.85	0.25	0
0.883333	0.25	0
0.916667	0.25	0
0.95	0.25	0
0.983333	0.25	0
0.0166667	0.283333	0
0.05	0.283333	0
0.0833333	0.283333	0
0.116667	0.283333	0
0.15	0.283333	0
0.183333	0.283333	0
0.216667	0.283333	0
0.25	0.283333	0
0.283333	0.283333	0
0.316667	0.283333	0
0.35	0.283333	0
0.383333	0.283333	0
0.416667	0.283333	0
0.45	0.283333	0
0.483333	0.283333	0
0.516667	0.283333	0
0.55	0.283333	0
0.583333	0.283333	0
0.616667	0.283333	0
0.65	0.283333	0
0.683333	0.283333	0
0.716667	0.283333	0
0.75	0.283333	0
0.783333	0.283333	0
0.816667	0.283333	0
0.85	0.283333	0
0.883333	0.283333	0
0.916667	0.283333	0
0.95	0.283333	0
0.983333	0.283333	0
0.0166667	0.316667	0
0.05	0.316667	0
0.0833333	0.316667	0
0.116667	0.316667	0
0.15	0.316667	0
0.183333	0.316667	0
0.216667	0.316667	0
0.25	0.316667	0
0.283333	0.316667	0
0.316667	0.316667	0
0.35	0.316667	0
0.383333	0.316667	0
0.416667	0.316667	0
0.45	0.316667	0
0.483333	0.316667	0
0.516667	0.316667	0
0.55	0.316667	0
0.583333	0.316667	0
0.616667	0.316667	0
0.65	0.316667	0
0.683333	0.316667	0
0.716667	0.316667	0
0.75	0.316667	0
0.783333	0.316667	0
0.816667	0.316667	0
0.85	0.316667	0
0.883333	0.316667	0
0.916667	0.316667	0
0.95	0.316667	0
0.983333	0.316667	0
0.0166667	0.35	0
0.05	0.35	0
0.0833333	0.35	0
0.116667	0.35	0
0.15	0.35	0
0.183333	0.35	0
0.216667	0.35	0
0.25	0.35	0
0.283333	0.35	0
0.316667	0.35	0
0.35	0.35	0
0.383333	0.35	0
0.416667	0.35	0
0.45	0.35	0
0.483333	0.35	0
0.516667	0.35	0
0.55	0.35	0
0.583333	0.35	0
0.616667	0.35	0
0.65	0.35	0
0.683333	0.35	0
0.716667	0.35	0
0.75	0.35	0
0.783333	0.35	0
0.816667	0.35	0
0.85	0.35	0
0.883333	0.35	0
0.916667	0.35	0
0.95	0.35	0
0.983333	0.35	0
0.0166667	0.383333	0
0.05	0.383333	0
0.0833333	0.383333	0
0.116667	0.383333	0
0.15	0.383333	0
0.183333	0.383333	0
0.216667	0.383333	0
0.25	0.383333	0
0.283333	0.383333	0
0.316667	0.383333	0
0.35	0.383333	0
0.383333	0.383333	0
0.416667	0.383333	0
0.45	0.383333	0
0.483333	0.383333	0
0.516667	0.383333	0
0.55	0.383333	0
0.583333	0.383333	0
0.616667	0.383333	0
0.65	0.383333	0
0.683333	0.383333	0
0.716667	0.383333	0
0.75	0.383333	0
0.783333	0.383333	0
0.816667	0.383333	0
0.85	0.383333	0
0.883333	0.383333	0
0.916667	0.383333	0
0.95	0.383333	0
0.983333	0.383333	0
0.0166667	0.416667	0
0.05	0.416667	0
0.0833333	0.416667	0
0.116667	0.416667	0
0.15	0.416667	0
0.183333	0.416667	0
0.216667	0.416667	0
0.25	0.416667	0
0.283333	0.416667	0
0.316667	0.416667	0
0.35	0.416667	0
0.383333	0.416667	0
0.416667	0.416667	0
0.45	0.416667	0
0.483333	0.416667	0
0.516667	0.416667	0
0.55	0.416667	0
0.583333	0.416667	0
0.616667	0.416667	0
0.65	0.416667	0
0.683333	0.416667	0
0.716667	0.416667	0
0.75	0.416667	0
0.783333	0.416667	0
0.816667	0.416667	0
0.85	0.416667	0
0.883333	0.416667	0
0.916667	0.416667	0
0.95	0.416667	0
0.983333	0.416667	0
0.0166667	0.45	0
0.05	0.45	0
0.0833333	0.45	0
0.116667	0.45	0
0.15	0.45	0
0.183333	0.45	0
0.216667	0.45	0
0.25	0.45	0
0.283333	0.45	0
0.316667	0.45	0
0.35	0.45	0
0.383333	0.45	0
0.416667	0.45	0
0.45	0.45	0
0.483333	0.45	0
0.516667	0.45	0
0.55	0.45	0
0.583333	0.45	0
0.616667	0.45	0
0.65	0.45	0
0.683333	0.45	0
0.716667	0.45	0
0.75	0.45	0
0.783333	0.45	0
0.816667	0.45	0
0.85	0.45	0
0.883333	0.45	0
0.916667	0.45	0
0.95	0.45	0
0.983333	0.45	0
0.0166667	0.483333	0
0.05	0.483333	0
0.0833333	0.483333	0
0.116667	0.483333	0
0.15	0.483333	0
0.183333	0.483333	0
0.216667	0.483333	0
0.25	0.483333	0
0.283333	0.483333	0
0.316667	0.483333	0
0.35	0.483333	0
0.383333	0.483333	0
0.416667	0.483333	0
0.45	0.483333	0
0.483333	0.483333	0
0.516667	0.483333	0
0.55	0.483333	0
0.583333	0.483333	0
0.616667	0.483333	0
0.65	0.483333	0
0.683333	0.483333	0
0.716667	0.483333	0
0.75	0.483333	0
0.783333	0.483333	0
0.816667	0.483333	0
0.85	0.483333	0
0.883333	0.483333	0
0.916667	0.483333	0
0.95	0.483333	0
0.983333	0.483333	0
1	0	0
1	0.0333333	0
1	0.0666667	0
1	0.1	0
1	0.133333	0
1	0.166667	0
1	0.2	0
1	0.233333	0
1	0.266667	0
1	0.3	0
1	0.333333	0
1	0.366667	0
1	0.4	0
1	0.433333	0
1	0.466667	0
-0.116667	-0.116667	0
-0.0833333	-0.116667	0
-0.05	-0.116667	0
-0.0166667	-0.116667	0
-0.116667	-0.0833333	0
-0.0833333	-0.0833333	0
-0.05	-0.0833333	0
-0.0166667	-0.0833333	0
-0.116667	-0.05	0
-0.0833333	-0.05	0
-0.05	-0.05	0
-0.0166667	-0.05	0
-0.116667	-0.0166667	0
-0.0833333	-0.0166667	0
-0.05	-0.0166667	0
-0.0166667	-0.0166667	0
0.0166667	-0.116667	0
0.05	-0.116667	0
0.0833333	-0.116667	0
0.116667	-0.116667	0
0.15	-0.116667	0
0.183333	-0.116667	0
0.216667	-0.116667	0
0.25	-0.116667	0
0.283333	-0.116667	0
0.316667	-0.116667	0
0.35	-0.116667	0
0.383333	-0.116667	0
0.416667	-0.116667	0
0.45	-0.116667	0
0.483333	-0.116667	0
0.516667	-0.116667	0
0.55	-0.116667	0
0.583333	-0.116667	0
0.616667	-0.116667	0
0.65	-0.116667	0
0.683333	-0.116667	0
0.716667	-0.116667	0
0.75	-0.116667	0
0.783333	-0.116667	0
0.816667	-0.116667	0
0.85	-0.116667	0
0.883333	-0.116667	0
0.916667	-0.116667	0
0.95	-0.116667	0
0.983333	-0.116667	0
0.0166667	-0.0833333	0
0.05	-0.0833333	0
0.0833333	-0.0833333	0
0.116667	-0.0833333	0
0.15	-0.0833333	0
0.183333	-0.0833333	0
0.216667	-0.0833333	0
0.25	-0.0833333	0
0.283333	-0.0833333	0
0.316667	-0.0833333	0
0.35	-0.0833333	0
0.383333	-0.0833333	0
0.416667	-0.0833333	0
0.45	-0.0833333	0
0.483333	-0.0833333	0
0.516667	-0.0833333	0
0.55	-0.0833333	0
0.583333	-0.0833333	0
0.616667	-0.0833333	0
0.65	-0.0833333	0
0.683333	-0.0833333	0
0.716667	-0.0833333	0
0.75	-0.0833333	0
0.783333	-0.0833333	0
0.816667	-0.0833333	0
0.85	-0.0833333	0
0.883333	-0.0833333	0
0.916667	-0.0833333	0
0.95	-0.0833333	0
0.983333	-0.0833333	0
0.0166667	-0.05	0
0.05	-0.05	0
0.0833333	-0.05	0
0.116667	-0.05	0
0.15	-0.05	0
0.183333	-0.05	0
0.216667	-0.05	0
0.25	-0.05	0
0.283333	-0.05	0
0.316667	-0.05	0
0.35	-0.05	0
0.383333	-0.05	0
0.416667	-0.05	0
0.45	-0.05	0
0.483333	-0.05	0
0.516667	-0.05	0
0.55	-0.05	0
0.583333	-0.05	0
0.616667	-0.05	0
0.65	-0.05	0
0.683333	-0.05	0
0.716667	-0.05	0
0.75	-0.05	0
0.783333	-0.05	0
0.816667	-0.05	0
0.85	-0.05	0
0.883333	-0.05	0
0.916667	-0.05	0
0.95	-0.05	0
0.983333	-0.05	0
0.0166667	-0.0166667	0
0.05	-0.0166667	0
0.0833333	-0.0166667	0
0.116667	-0.0166667	0
0.15	-0.0166667	0
0.183333	-0.0166667	0
0.216667	-0.0166667	0
0.25	-0.0166667	0
0.283333	-0.0166667	0
0.316667	-0.0166667	0
0.35	-0.0166667	0
0.383333	-0.0166667	0
0.416667	-0.0166667	0
0.45	-0.0166667	0
0.483333	-0.0166667	0
0.516667	-0.0166667	0
0.55	-0.0166667	0
0.583333	-0.0166667	0
0.616667	-0.0166667	0
0.65	-0.0166667	0
0.683333	-0.0166667	0
0.716667	-0.0166667	0
0.75	-0.0166667	0
0.783333	-0.0166667	0
0.816667	-0.0166667	0
0.85	-0.0166667	0
0.883333	-0.0166667	0
0.916667	-0.0166667	0
0.95	-0.0166667	0
0.983333	-0.0166667	0
1	-0.133333	0
1	-0.1	0
1	-0.0666667	0
1	-0.0333333	0
-0.116667	0.0166667	0
-0.0833333	0.0166667	0
-0.05	0.0166667	0
-0.0166667	0.0166667	0
-0.116667	0.05	0
-0.0833333	0.05	0
-0.05	0.05	0
-0.0166667	0.05	0
-0.116667	0.0833333	0
-0.0833333	0.0833333	0
-0.05	0.0833333	0
-0.0166667	0.0833333	0
-0.116667	0.116667	0
-0.0833333	0.116667	0
-0.05	0.116667	0
-0.0166667	0.116667	0
-0.116667	0.15	0
-0.0833333	0.15	0
-0.05	0.15	0
-0.0166667	0.15	0
-0.116667	0.183333	0
-0.0833333	0.183333	0
-0.05	0.183333	0
-0.0166667	0.183333	0
-0.116667	0.216667	0
-0.0833333	0.216667	0
-0.05	0.216667	0
-0.0166667	0.216667	0
-0.116667	0.25	0
-0.0833333	0.25	0
-0.05	0.25	0
-0.0166667	0.25	0
-0.116667	0.283333	0
-0.0833333	0.283333	0
-0.05	0.283333	0
-0.0166667	0.283333	0
-0.116667	0.316667	0
-0.0833333	0.316667	0
-0.05	0.316667	0
-0.0166667	0.316667	0
-0.116667	0.35	0
-0.0833333	0.35	0
-0.05	0.35	0
-0.0166667	0.35	0
-0.116667	0.383333	0
-0.0833333	0.383333	0
-0.05	0.383333	0
-0.0166667	0.383333	0
-0.116667	0.416667	0
-0.0833333	0.416667	0
-0.05	0.416667	0
-0.0166667	0.416667	0
-0.116667	0.45	0
-0.0833333	0.45	0
-0.05	0.45	0
-0.0166667	0.45	0
-0.116667	0.483333	0
-0.0833333	0.483333	0
-0.05	0.483333	0
-0.0166667	0.483333	0
-0.116667	0.516667	0
-0.0833333	0.516667	0
-0.05	0.516667	0
-0.0166667	0.516667	0
-0.116667	0.55	0
-0.0833333	0.55	0
-0.05	0.55	0
-0.0166667	0.55	0
-0.116667	0.583333	0
-0.0833333	0.583333	0
-0.05	0.583333	0
-0.0166667	0.583333	0
-0.116667	0.616667	0
-0.0833333	0.616667	0
-0.05	0.616667	0
-0.0166667	0.616667	0
0.0166667	0.516667	0
0.05	0.516667	0
0.0833333	0.516667	0
0.116667	0.516667	0
0.15	0.516667	0
0.183333	0.516667	0
0.216667	0.516667	0
0.25	0.516667	0
0.283333	0.516667	0
0.316667	0.516667	0
0.35	0.516667	0
0.383333	0.516667	0
0.416667	0.516667	0
0.45	0.516667	0
0.483333	0.516667	0
0.516667	0.516667	0
0.55	0.516667	0
0.583333	0.516667	0
0.616667	0.516667	0
0.65	0.516667	0
0.683333	0.516667	0
0.716667	0.516667	0
0.75	0.516667	0
0.783333	0.516667	0
0.816667	0.516667	0
0.85	0.516667	0
0.883333	0.516667	0
0.916667	0.516667	0
0.95	0.516667	0
0.983333	0.516667	0
0.0166667	0.55	0
0.05	0.55	0
0.0833333	0.55	0
0.116667	0.55	0
0.15	0.55	0
0.183333	0.55	0
0.216667	0.55	0
0.25	0.55	0
0.283333	0.55	0
0.316667	0.55	0
0.35	0.55	0
0.383333	0.55	0
0.416667	0.55	0
0.45	0.55	0
0.483333	0.55	0
0.516667	0.55	0
0.55	0.55	0
0.583333	0.55	0
0.616667	0.55	0
0.65	0.55	0
0.683333	0.55	0
0.716667	0.55	0
0.75	0.55	0
0.783333	0.55	0
0.816667	0.55	0
0.85	0.55	0
0.883333	0.55	0
0.916667	0.55	0
0.95	0.55	0
0.983333	0.55	0
0.0166667	0.583333	0
0.05	0.583333	0
0.0833333	0.583333	0
0.116667	0.583333	0
0.15	0.583333	0
0.183333	0.583333	0
0.216667	0.583333	0
0.25	0.583333	0
0.283333	0.583333	0
0.316667	0.583333	0
0.35	0.583333	0
0.383333	0.583333	0
0.416667	0.583333	0
0.45	0.583333	0
0.483333	0.583333	0
0.516667	0.583333	0
0.55	0.583333	0
0.583333	0.583333	0
0.616667	0.583333	0
0.65	0.583333	0
0.683333	0.583333	0
0.716667	0.583333	0
0.75	0.583333	0
0.783333	0.583333	0
0.816667	0.583333	0
0.85	0.583333	0
0.883333	0.583333	0
0.916667	0.583333	0
0.95	0.583333	0
0.983333	0.583333	0
0.0166667	0.616667	0
0.05	0.616667	0
0.0833333	0.616667	0
0.116667	0.616667	0
0.15	0.616667	0
0.183333	0.616667	0
0.216667	0.616667	0
0.25	0.616667	0
0.283333	0.616667	0
0.316667	0.616667	0
0.35	0.616667	0
0.383333	0.616667	0
0.416667	0.616667	0
0.45	0.616667	0
0.483333	0.616667	0
0.516667	0.616667	0
0.55	0.616667	0
0.583333	0.616667	0
0.616667	0.616667	0
0.65	0.616667	0
0.683333	0.616667	0
0.716667	0.616667	0
0.75	0.616667	0
0.783333	0.616667	0
0.816667	0.616667	0
0.85	0.616667	0
0.883333	0.616667	0
0.916667	0.616667	0
0.95	0.616667	0
0.983333	0.616667	0
1	0.5	0
1	0.533333	0
1	0.566667	0
1	0.6	0
1	0.633333	0
POINT_DATA 806
SCALARS Index int 1
LOOKUP_TABLE default
2385
2386
2387
2388
2389
2390
2391
2392
2393
2394
2395
2396
2397
2398
2399
2400
2401
2402
2403
2404
2405
2406
2407
2408
2409
2410
2411
2412
2413
2414
2415
2416
2417
2418
2419
2420
2421
2422
2423
2424
2425
2426
2427
2428
2429
2430
2431
2432
2433
2434
2435
2436
2437
2438
2439
2440
2441
2442
2443
2444
2445
2446
2447
2448
2449
2450
2451
2452
2453
2454
2455
2456
2457
2458
2459
2460
2461
2462
2463
2464
2465
2466
2467
2468
2469
2470
2471
2472
2473
2474
2475
2476
2477
2478
2479
2480
2481
2482
2483
2484
2485
2486
2487
2488
2489
2490
2491
2492
2493
2494
2495
2496
2497
2498
2499
2500
2501
2502
2503
2504
2505
2506
2507
2508
2509
2510
2511
2512
2513
2514
2515
2516
2517
2518
2519
2520
2521
2522
2523
2524
2525
2526
2527
2528
2529
2530
2531
2532
2533
2534
2535
2536
2537
2538
2539
2540
2541
2542
2543
2544
2545
2546
2547
2548
2549
2550
2551
2552
2553
2554
2555
2556
2557
2558
2559
2560
2561
2562
2563
2564
2565
2566
2567
2568
2569
2570
2571
2572
2573
2574
2575
2576
2577
2578
2579
2580
2581
2582
2583
2584
2585
2586
2587
2588
2589
2590
2591
2592
2593
2594
2595
2596
2597
2598
2599
2600
2601
2602
2603
2604
2605
2606
2607
2608
2609
2610
2611
2612
2613
2614
2615
2616
2617
2618
2619
2620
2621
2622
2623
2624
2625
2626
2627
2628
2629
2630
2631
2632
2633
2634
2635
2636
2637
2638
2639
2640
2641
2642
2643
2644
2645
2646
2647
2648
2649
2650
2651
2652
2653
2654
2655
2656
2657
2658
2659
2660
2661
2662
2663
2664
2665
2666
2667
2668
2669
2670
2671
2672
2673
2674
2675
2676
2677
2678
2679
2680
2681
2682
2683
2684
2685
2686
2687
2688
2689
2690
2691
2692
2693
2694
2695
2696
2697
2698
2699
2700
2701
2702
2703
2704
2705
2706
2707
2708
2709
2710
2711
2712
2713
2714
2715
2716
2717
2718
2719
2720
2721
2722
2723
2724
2725
2726
2727
2728
2729
2730
2731
2732
2733
2734
2735
2736
2737
2738
2739
2740
2741
2742
2743
2744
2745
2746
2747
2748
2749
2750
2751
2752
2753
2754
2755
2756
2757
2758
2759
2760
2761
2762
2763
2764
2765
2766
2767
2768
2769
2770
2771
2772
2773
2774
2775
2776
2777
2778
2779
2780
2781
2782
2783
2784
2785
2786
2787
2788
2789
2790
2791
2792
2793
2794
2795
2796
2797
2798
2799
2800
2801
2802
2803
2804
2805
2806
2807
2808
2809
2810
2811
2812
2813
2814
2815
2816
2817
2818
2819
2820
2821
2822
2823
2824
2825
2826
2827
2828
2829
2830
2831
2832
2833
2834
2835
2836
2837
2838
2839
2840
2841
2842
2843
2844
2845
2846
2847
2848
2849
1346
1347
1348
1349
1376
1377
1378
1379
1406
1407
1408
1409
1436
1437
1438
1439
1785
1786
1787
1788
1789
1790
1791
1792
1793
1794
1795
1796
1797
1798
1799
1800
1801
1802
1803
1804
1805
1806
1807
1808
1809
1810
1811
1812
1813
1814
1815
1816
1817
1818
1819
1820
1821
1822
1823
1824
1825
1826
1827
1828
1829
1830
1831
1832
1833
1834
1835
1836
1837
1838
1839
1840
1841
1842
1843
1844
1845
1846
1847
1848
1849
1850
1851
1852
1853
1854
1855
1856
1857
1858
1859
1860
1861
1862
1863
1864
1865
1866
1867
1868
1869
1870
1871
1872
1873
1874
1875
1876
1877
1878
1879
1880
1881
1882
1883
1884
1885
1886
1887
1888
1889
1890
1891
1892
1893
1894
1895
1896
1897
1898
1899
1900
1901
1902
1903
1904
1916
1917
1918
1919
1946
1947
1948
1949
1976
1977
1978
1979
2006
2007
2008
2009
2036
2037
2038
2039
2066
2067
2068
2069
2096
2097
2098
2099
2126
2127
2128
2129
2156
2157
2158
2159
2186
2187
2188
2189
2216
2217
2218
2219
2246
2247
2248
2249
2276
2277
2278
2279
2306
2307
2308
2309
2336
2337
2338
2339
2366
2367
2368
2369
2876
2877
2878
2879
2906
2907
2908
2909
2936
2937
2938
2939
2966
2967
2968
2969
3345
3346
3347
3348
3349
3350
3351
3352
3353
3354
3355
3356
3357
3358
3359
3360
3361
3362
3363
3364
3365
3366
3367
3368
3369
3370
3371
3372
3373
3374
3375
3376
3377
3378
3379
3380
3381
3382
3383
3384
3385
3386
3387
3388
3389
3390
3391
3392
3393
3394
3395
3396
3397
3398
3399
3400
3401
3402
3403
3404
3405
3406
3407
3408
3409
3410
3411
3412
3413
3414
3415
3416
3417
3418
3419
3420
3421
3422
3423
3424
3425
3426
3427
3428
3429
3430
3431
3432
3433
3434
3435
3436
3437
3438
3439
3440
3441
3442
3443
3444
3445
3446
3447
3448
3449
3450
3451
3452
3453
3454
3455
3456
3457
3458
3459
3460
3461
3462
3463
3464
3795
3796
3797
3798
3799
