# vtk DataFile Version 2.0
particlePositions
ASCII
DATASET POLYDATA
POINTS 700 float
-0.983333	0.516667	0
-0.95	0.516667	0
-0.916667	0.516667	0
-0.883333	0.516667	0
-0.85	0.516667	0
-0.816667	0.516667	0
-0.783333	0.516667	0
-0.75	0.516667	0
-0.716667	0.516667	0
-0.683333	0.516667	0
-0.65	0.516667	0
-0.616667	0.516667	0
-0.583333	0.516667	0
-0.55	0.516667	0
-0.516667	0.516667	0
-0.483333	0.516667	0
-0.45	0.516667	0
-0.416667	0.516667	0
-0.383333	0.516667	0
-0.35	0.516667	0
-0.316667	0.516667	0
-0.283333	0.516667	0
-0.25	0.516667	0
-0.216667	0.516667	0
-0.183333	0.516667	0
-0.15	0.516667	0
-0.116667	0.516667	0
-0.0833333	0.516667	0
-0.05	0.516667	0
-0.0166667	0.516667	0
-0.983333	0.55	0
-0.95	0.55	0
-0.916667	0.55	0
-0.883333	0.55	0
-0.85	0.55	0
-0.816667	0.55	0
-0.783333	0.55	0
-0.75	0.55	0
-0.716667	0.55	0
-0.683333	0.55	0
-0.65	0.55	0
-0.616667	0.55	0
-0.583333	0.55	0
-0.55	0.55	0
-0.516667	0.55	0
-0.483333	0.55	0
-0.45	0.55	0
-0.416667	0.55	0
-0.383333	0.55	0
-0.35	0.55	0
-0.316667	0.55	0
-0.283333	0.55	0
-0.25	0.55	0
-0.216667	0.55	0
-0.183333	0.55	0
-0.15	0.55	0
-0.116667	0.55	0
-0.0833333	0.55	0
-0.05	0.55	0
-0.0166667	0.55	0
-0.983333	0.583333	0
-0.95	0.583333	0
-0.916667	0.583333	0
-0.883333	0.583333	0
-0.85	0.583333	0
-0.816667	0.583333	0
-0.783333	0.583333	0
-0.75	0.583333	0
-0.716667	0.583333	0
-0.683333	0.583333	0
-0.65	0.583333	0
-0.616667	0.583333	0
-0.583333	0.583333	0
-0.55	0.583333	0
-0.516667	0.583333	0
-0.483333	0.583333	0
-0.45	0.583333	0
-0.416667	0.583333	0
-0.383333	0.583333	0
-0.35	0.583333	0
-0.316667	0.583333	0
-0.283333	0.583333	0
-0.25	0.583333	0
-0.216667	0.583333	0
-0.183333	0.583333	0
-0.15	0.583333	0
-0.116667	0.583333	0
-0.0833333	0.583333	0
-0.05	0.583333	0
-0.0166667	0.583333	0
-0.983333	0.616667	0
-0.95	0.616667	0
-0.916667	0.616667	0
-0.883333	0.616667	0
-0.85	0.616667	0
-0.816667	0.616667	0
-0.783333	0.616667	0
-0.75	0.616667	0
-0.716667	0.616667	0
-0.683333	0.616667	0
-0.65	0.616667	0
-0.616667	0.616667	0
-0.583333	0.616667	0
-0.55	0.616667	0
-0.516667	0.616667	0
-0.483333	0.616667	0
-0.45	0.616667	0
-0.416667	0.616667	0
-0.383333	0.616667	0
-0.35	0.616667	0
-0.316667	0.616667	0
-0.283333	0.616667	0
-0.25	0.616667	0
-0.216667	0.616667	0
-0.183333	0.616667	0
-0.15	0.616667	0
-0.116667	0.616667	0
-0.0833333	0.616667	0
-0.05	0.616667	0
-0.0166667	0.616667	0
-0.983333	0.65	0
-0.95	0.65	0
-0.916667	0.65	0
-0.883333	0.65	0
-0.85	0.65	0
-0.816667	0.65	0
-0.783333	0.65	0
-0.75	0.65	0
-0.716667	0.65	0
-0.683333	0.65	0
-0.65	0.65	0
-0.616667	0.65	0
-0.583333	0.65	0
-0.55	0.65	0
-0.516667	0.65	0
-0.483333	0.65	0
-0.45	0.65	0
-0.416667	0.65	0
-0.383333	0.65	0
-0.35	0.65	0
-0.316667	0.65	0
-0.283333	0.65	0
-0.25	0.65	0
-0.216667	0.65	0
-0.183333	0.65	0
-0.15	0.65	0
-0.116667	0.65	0
-0.0833333	0.65	0
-0.05	0.65	0
-0.0166667	0.65	0
-0.983333	0.683333	0
-0.95	0.683333	0
-0.916667	0.683333	0
-0.883333	0.683333	0
-0.85	0.683333	0
-0.816667	0.683333	0
-0.783333	0.683333	0
-0.75	0.683333	0
-0.716667	0.683333	0
-0.683333	0.683333	0
-0.65	0.683333	0
-0.616667	0.683333	0
-0.583333	0.683333	0
-0.55	0.683333	0
-0.516667	0.683333	0
-0.483333	0.683333	0
-0.45	0.683333	0
-0.416667	0.683333	0
-0.383333	0.683333	0
-0.35	0.683333	0
-0.316667	0.683333	0
-0.283333	0.683333	0
-0.25	0.683333	0
-0.216667	0.683333	0
-0.183333	0.683333	0
-0.15	0.683333	0
-0.116667	0.683333	0
-0.0833333	0.683333	0
-0.05	0.683333	0
-0.0166667	0.683333	0
-0.983333	0.716667	0
-0.95	0.716667	0
-0.916667	0.716667	0
-0.883333	0.716667	0
-0.85	0.716667	0
-0.816667	0.716667	0
-0.783333	0.716667	0
-0.75	0.716667	0
-0.716667	0.716667	0
-0.683333	0.716667	0
-0.65	0.716667	0
-0.616667	0.716667	0
-0.583333	0.716667	0
-0.55	0.716667	0
-0.516667	0.716667	0
-0.483333	0.716667	0
-0.45	0.716667	0
-0.416667	0.716667	0
-0.383333	0.716667	0
-0.35	0.716667	0
-0.316667	0.716667	0
-0.283333	0.716667	0
-0.25	0.716667	0
-0.216667	0.716667	0
-0.183333	0.716667	0
-0.15	0.716667	0
-0.116667	0.716667	0
-0.0833333	0.716667	0
-0.05	0.716667	0
-0.0166667	0.716667	0
-0.983333	0.75	0
-0.95	0.75	0
-0.916667	0.75	0
-0.883333	0.75	0
-0.85	0.75	0
-0.816667	0.75	0
-0.783333	0.75	0
-0.75	0.75	0
-0.716667	0.75	0
-0.683333	0.75	0
-0.65	0.75	0
-0.616667	0.75	0
-0.583333	0.75	0
-0.55	0.75	0
-0.516667	0.75	0
-0.483333	0.75	0
-0.45	0.75	0
-0.416667	0.75	0
-0.383333	0.75	0
-0.35	0.75	0
-0.316667	0.75	0
-0.283333	0.75	0
-0.25	0.75	0
-0.216667	0.75	0
-0.183333	0.75	0
-0.15	0.75	0
-0.116667	0.75	0
-0.0833333	0.75	0
-0.05	0.75	0
-0.0166667	0.75	0
-0.983333	0.783333	0
-0.95	0.783333	0
-0.916667	0.783333	0
-0.883333	0.783333	0
-0.85	0.783333	0
-0.816667	0.783333	0
-0.783333	0.783333	0
-0.75	0.783333	0
-0.716667	0.783333	0
-0.683333	0.783333	0
-0.65	0.783333	0
-0.616667	0.783333	0
-0.583333	0.783333	0
-0.55	0.783333	0
-0.516667	0.783333	0
-0.483333	0.783333	0
-0.45	0.783333	0
-0.416667	0.783333	0
-0.383333	0.783333	0
-0.35	0.783333	0
-0.316667	0.783333	0
-0.283333	0.783333	0
-0.25	0.783333	0
-0.216667	0.783333	0
-0.183333	0.783333	0
-0.15	0.783333	0
-0.116667	0.783333	0
-0.0833333	0.783333	0
-0.05	0.783333	0
-0.0166667	0.783333	0
-0.983333	0.816667	0
-0.95	0.816667	0
-0.916667	0.816667	0
-0.883333	0.816667	0
-0.85	0.816667	0
-0.816667	0.816667	0
-0.783333	0.816667	0
-0.75	0.816667	0
-0.716667	0.816667	0
-0.683333	0.816667	0
-0.65	0.816667	0
-0.616667	0.816667	0
-0.583333	0.816667	0
-0.55	0.816667	0
-0.516667	0.816667	0
-0.483333	0.816667	0
-0.45	0.816667	0
-0.416667	0.816667	0
-0.383333	0.816667	0
-0.35	0.816667	0
-0.316667	0.816667	0
-0.283333	0.816667	0
-0.25	0.816667	0
-0.216667	0.816667	0
-0.183333	0.816667	0
-0.15	0.816667	0
-0.116667	0.816667	0
-0.0833333	0.816667	0
-0.05	0.816667	0
-0.0166667	0.816667	0
-0.983333	0.85	0
-0.95	0.85	0
-0.916667	0.85	0
-0.883333	0.85	0
-0.85	0.85	0
-0.816667	0.85	0
-0.783333	0.85	0
-0.75	0.85	0
-0.716667	0.85	0
-0.683333	0.85	0
-0.65	0.85	0
-0.616667	0.85	0
-0.583333	0.85	0
-0.55	0.85	0
-0.516667	0.85	0
-0.483333	0.85	0
-0.45	0.85	0
-0.416667	0.85	0
-0.383333	0.85	0
-0.35	0.85	0
-0.316667	0.85	0
-0.283333	0.85	0
-0.25	0.85	0
-0.216667	0.85	0
-0.183333	0.85	0
-0.15	0.85	0
-0.116667	0.85	0
-0.0833333	0.85	0
-0.05	0.85	0
-0.0166667	0.85	0
-0.983333	0.883333	0
-0.95	0.883333	0
-0.916667	0.883333	0
-0.883333	0.883333	0
-0.85	0.883333	0
-0.816667	0.883333	0
-0.783333	0.883333	0
-0.75	0.883333	0
-0.716667	0.883333	0
-0.683333	0.883333	0
-0.65	0.883333	0
-0.616667	0.883333	0
-0.583333	0.883333	0
-0.55	0.883333	0
-0.516667	0.883333	0
-0.483333	0.883333	0
-0.45	0.883333	0
-0.416667	0.883333	0
-0.383333	0.883333	0
-0.35	0.883333	0
-0.316667	0.883333	0
-0.283333	0.883333	0
-0.25	0.883333	0
-0.216667	0.883333	0
-0.183333	0.883333	0
-0.15	0.883333	0
-0.116667	0.883333	0
-0.0833333	0.883333	0
-0.05	0.883333	0
-0.0166667	0.883333	0
-0.983333	0.916667	0
-0.95	0.916667	0
-0.916667	0.916667	0
-0.883333	0.916667	0
-0.85	0.916667	0
-0.816667	0.916667	0
-0.783333	0.916667	0
-0.75	0.916667	0
-0.716667	0.916667	0
-0.683333	0.916667	0
-0.65	0.916667	0
-0.616667	0.916667	0
-0.583333	0.916667	0
-0.55	0.916667	0
-0.516667	0.916667	0
-0.483333	0.916667	0
-0.45	0.916667	0
-0.416667	0.916667	0
-0.383333	0.916667	0
-0.35	0.916667	0
-0.316667	0.916667	0
-0.283333	0.916667	0
-0.25	0.916667	0
-0.216667	0.916667	0
-0.183333	0.916667	0
-0.15	0.916667	0
-0.116667	0.916667	0
-0.0833333	0.916667	0
-0.05	0.916667	0
-0.0166667	0.916667	0
-0.983333	0.95	0
-0.95	0.95	0
-0.916667	0.95	0
-0.883333	0.95	0
-0.85	0.95	0
-0.816667	0.95	0
-0.783333	0.95	0
-0.75	0.95	0
-0.716667	0.95	0
-0.683333	0.95	0
-0.65	0.95	0
-0.616667	0.95	0
-0.583333	0.95	0
-0.55	0.95	0
-0.516667	0.95	0
-0.483333	0.95	0
-0.45	0.95	0
-0.416667	0.95	0
-0.383333	0.95	0
-0.35	0.95	0
-0.316667	0.95	0
-0.283333	0.95	0
-0.25	0.95	0
-0.216667	0.95	0
-0.183333	0.95	0
-0.15	0.95	0
-0.116667	0.95	0
-0.0833333	0.95	0
-0.05	0.95	0
-0.0166667	0.95	0
-0.983333	0.983333	0
-0.95	0.983333	0
-0.916667	0.983333	0
-0.883333	0.983333	0
-0.85	0.983333	0
-0.816667	0.983333	0
-0.783333	0.983333	0
-0.75	0.983333	0
-0.716667	0.983333	0
-0.683333	0.983333	0
-0.65	0.983333	0
-0.616667	0.983333	0
-0.583333	0.983333	0
-0.55	0.983333	0
-0.516667	0.983333	0
-0.483333	0.983333	0
-0.45	0.983333	0
-0.416667	0.983333	0
-0.383333	0.983333	0
-0.35	0.983333	0
-0.316667	0.983333	0
-0.283333	0.983333	0
-0.25	0.983333	0
-0.216667	0.983333	0
-0.183333	0.983333	0
-0.15	0.983333	0
-0.116667	0.983333	0
-0.0833333	0.983333	0
-0.05	0.983333	0
-0.0166667	0.983333	0
0	1	0
-0.0333333	1	0
-0.0666667	1	0
-0.1	1	0
-0.133333	1	0
-0.166667	1	0
-0.2	1	0
-0.233333	1	0
-0.266667	1	0
-0.3	1	0
-0.333333	1	0
-0.366667	1	0
-0.4	1	0
-0.433333	1	0
-0.466667	1	0
-0.5	1	0
-0.533333	1	0
-0.566667	1	0
-0.6	1	0
-0.633333	1	0
-0.666667	1	0
-0.7	1	0
-0.733333	1	0
-0.766667	1	0
-0.8	1	0
-0.833333	1	0
-0.866667	1	0
-0.9	1	0
-0.933333	1	0
-0.966667	1	0
-1	1	0
-1	0.966667	0
-1	0.933333	0
-1	0.9	0
-1	0.866667	0
-1	0.833333	0
-1	0.8	0
-1	0.766667	0
-1	0.733333	0
-1	0.7	0
-1	0.666667	0
-1	0.633333	0
-1	0.6	0
-1	0.566667	0
-1	0.533333	0
-0.983333	0.383333	0
-0.95	0.383333	0
-0.916667	0.383333	0
-0.883333	0.383333	0
-0.85	0.383333	0
-0.816667	0.383333	0
-0.783333	0.383333	0
-0.75	0.383333	0
-0.716667	0.383333	0
-0.683333	0.383333	0
-0.65	0.383333	0
-0.616667	0.383333	0
-0.583333	0.383333	0
-0.55	0.383333	0
-0.516667	0.383333	0
-0.483333	0.383333	0
-0.45	0.383333	0
-0.416667	0.383333	0
-0.383333	0.383333	0
-0.35	0.383333	0
-0.316667	0.383333	0
-0.283333	0.383333	0
-0.25	0.383333	0
-0.216667	0.383333	0
-0.183333	0.383333	0
-0.15	0.383333	0
-0.116667	0.383333	0
-0.0833333	0.383333	0
-0.05	0.383333	0
-0.0166667	0.383333	0
-0.983333	0.416667	0
-0.95	0.416667	0
-0.916667	0.416667	0
-0.883333	0.416667	0
-0.85	0.416667	0
-0.816667	0.416667	0
-0.783333	0.416667	0
-0.75	0.416667	0
-0.716667	0.416667	0
-0.683333	0.416667	0
-0.65	0.416667	0
-0.616667	0.416667	0
-0.583333	0.416667	0
-0.55	0.416667	0
-0.516667	0.416667	0
-0.483333	0.416667	0
-0.45	0.416667	0
-0.416667	0.416667	0
-0.383333	0.416667	0
-0.35	0.416667	0
-0.316667	0.416667	0
-0.283333	0.416667	0
-0.25	0.416667	0
-0.216667	0.416667	0
-0.183333	0.416667	0
-0.15	0.416667	0
-0.116667	0.416667	0
-0.0833333	0.416667	0
-0.05	0.416667	0
-0.0166667	0.416667	0
-0.983333	0.45	0
-0.95	0.45	0
-0.916667	0.45	0
-0.883333	0.45	0
-0.85	0.45	0
-0.816667	0.45	0
-0.783333	0.45	0
-0.75	0.45	0
-0.716667	0.45	0
-0.683333	0.45	0
-0.65	0.45	0
-0.616667	0.45	0
-0.583333	0.45	0
-0.55	0.45	0
-0.516667	0.45	0
-0.483333	0.45	0
-0.45	0.45	0
-0.416667	0.45	0
-0.383333	0.45	0
-0.35	0.45	0
-0.316667	0.45	0
-0.283333	0.45	0
-0.25	0.45	0
-0.216667	0.45	0
-0.183333	0.45	0
-0.15	0.45	0
-0.116667	0.45	0
-0.0833333	0.45	0
-0.05	0.45	0
-0.0166667	0.45	0
-0.983333	0.483333	0
-0.95	0.483333	0
-0.916667	0.483333	0
-0.883333	0.483333	0
-0.85	0.483333	0
-0.816667	0.483333	0
-0.783333	0.483333	0
-0.75	0.483333	0
-0.716667	0.483333	0
-0.683333	0.483333	0
-0.65	0.483333	0
-0.616667	0.483333	0
-0.583333	0.483333	0
-0.55	0.483333	0
-0.516667	0.483333	0
-0.483333	0.483333	0
-0.45	0.483333	0
-0.416667	0.483333	0
-0.383333	0.483333	0
-0.35	0.483333	0
-0.316667	0.483333	0
-0.283333	0.483333	0
-0.25	0.483333	0
-0.216667	0.483333	0
-0.183333	0.483333	0
-0.15	0.483333	0
-0.116667	0.483333	0
-0.0833333	0.483333	0
-0.05	0.483333	0
-0.0166667	0.483333	0
-1	0.5	0
-1	0.466667	0
-1	0.433333	0
-1	0.4	0
-1	0.366667	0
0.0166667	0.383333	0
0.05	0.383333	0
0.0833333	0.383333	0
0.116667	0.383333	0
0.0166667	0.416667	0
0.05	0.416667	0
0.0833333	0.416667	0
0.116667	0.416667	0
0.0166667	0.45	0
0.05	0.45	0
0.0833333	0.45	0
0.116667	0.45	0
0.0166667	0.483333	0
0.05	0.483333	0
0.0833333	0.483333	0
0.116667	0.483333	0
0.0166667	0.516667	0
0.05	0.516667	0
0.0833333	0.516667	0
0.116667	0.516667	0
0.0166667	0.55	0
0.05	0.55	0
0.0833333	0.55	0
0.116667	0.55	0
0.0166667	0.583333	0
0.05	0.583333	0
0.0833333	0.583333	0
0.116667	0.583333	0
0.0166667	0.616667	0
0.05	0.616667	0
0.0833333	0.616667	0
0.116667	0.616667	0
0.0166667	0.65	0
0.05	0.65	0
0.0833333	0.65	0
0.116667	0.65	0
0.0166667	0.683333	0
0.05	0.683333	0
0.0833333	0.683333	0
0.116667	0.683333	0
0.0166667	0.716667	0
0.05	0.716667	0
0.0833333	0.716667	0
0.116667	0.716667	0
0.0166667	0.75	0
0.05	0.75	0
0.0833333	0.75	0
0.116667	0.75	0
0.0166667	0.783333	0
0.05	0.783333	0
0.0833333	0.783333	0
0.116667	0.783333	0
0.0166667	0.816667	0
0.05	0.816667	0
0.0833333	0.816667	0
0.116667	0.816667	0
0.0166667	0.85	0
0.05	0.85	0
0.0833333	0.85	0
0.116667	0.85	0
0.0166667	0.883333	0
0.05	0.883333	0
0.0833333	0.883333	0
0.116667	0.883333	0
0.0166667	0.916667	0
0.05	0.916667	0
0.0833333	0.916667	0
0.116667	0.916667	0
0.0166667	0.95	0
0.05	0.95	0
0.0833333	0.95	0
0.116667	0.95	0
0.0166667	0.983333	0
0.05	0.983333	0
0.0833333	0.983333	0
0.116667	0.983333	0
0.133333	1	0
0.1	1	0
0.0666667	1	0
0.0333333	1	0
POINT_DATA 700
SCALARS Index int 1
LOOKUP_TABLE default
2850
2851
2852
2853
2854
2855
2856
2857
2858
2859
2860
2861
2862
2863
2864
2865
2866
2867
2868
2869
2870
2871
2872
2873
2874
2875
2876
2877
2878
2879
2880
2881
2882
2883
2884
2885
2886
2887
2888
2889
2890
2891
2892
2893
2894
2895
2896
2897
2898
2899
2900
2901
2902
2903
2904
2905
2906
2907
2908
2909
2910
2911
2912
2913
2914
2915
2916
2917
2918
2919
2920
2921
2922
2923
2924
2925
2926
2927
2928
2929
2930
2931
2932
2933
2934
2935
2936
2937
2938
2939
2940
2941
2942
2943
2944
2945
2946
2947
2948
2949
2950
2951
2952
2953
2954
2955
2956
2957
2958
2959
2960
2961
2962
2963
2964
2965
2966
2967
2968
2969
2970
2971
2972
2973
2974
2975
2976
2977
2978
2979
2980
2981
2982
2983
2984
2985
2986
2987
2988
2989
2990
2991
2992
2993
2994
2995
2996
2997
2998
2999
3000
3001
3002
3003
3004
3005
3006
3007
3008
3009
3010
3011
3012
3013
3014
3015
3016
3017
3018
3019
3020
3021
3022
3023
3024
3025
3026
3027
3028
3029
3030
3031
3032
3033
3034
3035
3036
3037
3038
3039
3040
3041
3042
3043
3044
3045
3046
3047
3048
3049
3050
3051
3052
3053
3054
3055
3056
3057
3058
3059
3060
3061
3062
3063
3064
3065
3066
3067
3068
3069
3070
3071
3072
3073
3074
3075
3076
3077
3078
3079
3080
3081
3082
3083
3084
3085
3086
3087
3088
3089
3090
3091
3092
3093
3094
3095
3096
3097
3098
3099
3100
3101
3102
3103
3104
3105
3106
3107
3108
3109
3110
3111
3112
3113
3114
3115
3116
3117
3118
3119
3120
3121
3122
3123
3124
3125
3126
3127
3128
3129
3130
3131
3132
3133
3134
3135
3136
3137
3138
3139
3140
3141
3142
3143
3144
3145
3146
3147
3148
3149
3150
3151
3152
3153
3154
3155
3156
3157
3158
3159
3160
3161
3162
3163
3164
3165
3166
3167
3168
3169
3170
3171
3172
3173
3174
3175
3176
3177
3178
3179
3180
3181
3182
3183
3184
3185
3186
3187
3188
3189
3190
3191
3192
3193
3194
3195
3196
3197
3198
3199
3200
3201
3202
3203
3204
3205
3206
3207
3208
3209
3210
3211
3212
3213
3214
3215
3216
3217
3218
3219
3220
3221
3222
3223
3224
3225
3226
3227
3228
3229
3230
3231
3232
3233
3234
3235
3236
3237
3238
3239
3240
3241
3242
3243
3244
3245
3246
3247
3248
3249
3250
3251
3252
3253
3254
3255
3256
3257
3258
3259
3260
3261
3262
3263
3264
3265
3266
3267
3268
3269
3270
3271
3272
3273
3274
3275
3276
3277
3278
3279
3280
3281
3282
3283
3284
3285
3286
3287
3288
3289
3290
3291
3292
3293
3294
3295
3296
3297
3298
3299
3300
3301
3302
3303
3304
3305
3306
3307
3308
3309
3310
3311
3312
3313
3314
3315
3316
3317
3318
3319
3320
3321
3322
3323
3324
3325
3326
3327
3328
3329
3330
3331
3332
3333
3334
3335
3336
3337
3338
3339
3340
3341
3342
3343
3344
2250
2251
2252
2253
2254
2255
2256
2257
2258
2259
2260
2261
2262
2263
2264
2265
2266
2267
2268
2269
2270
2271
2272
2273
2274
2275
2276
2277
2278
2279
2280
2281
2282
2283
2284
2285
2286
2287
2288
2289
2290
2291
2292
2293
2294
2295
2296
2297
2298
2299
2300
2301
2302
2303
2304
2305
2306
2307
2308
2309
2310
2311
2312
2313
2314
2315
2316
2317
2318
2319
2320
2321
2322
2323
2324
2325
2326
2327
2328
2329
2330
2331
2332
2333
2334
2335
2336
2337
2338
2339
2340
2341
2342
2343
2344
2345
2346
2347
2348
2349
2350
2351
2352
2353
2354
2355
2356
2357
2358
2359
2360
2361
2362
2363
2364
2365
2366
2367
2368
2369
2370
2371
2372
2373
2374
2715
2716
2717
2718
2745
2746
2747
2748
2775
2776
2777
2778
2805
2806
2807
2808
3345
3346
3347
3348
3375
3376
3377
3378
3405
3406
3407
3408
3435
3436
3437
3438
3465
3466
3467
3468
3495
3496
3497
3498
3525
3526
3527
3528
3555
3556
3557
3558
3585
3586
3587
3588
3615
3616
3617
3618
3645
3646
3647
3648
3675
3676
3677
3678
3705
3706
3707
3708
3735
3736
3737
3738
3765
3766
3767
3768
3836
3837
3838
3839
