# vtk DataFile Version 2.0
particlePositions
ASCII
DATASET POLYDATA
POINTS 734 float
0.0166667	-0.983333	0
0.05	-0.983333	0
0.0833333	-0.983333	0
0.116667	-0.983333	0
0.15	-0.983333	0
0.183333	-0.983333	0
0.216667	-0.983333	0
0.25	-0.983333	0
0.283333	-0.983333	0
0.316667	-0.983333	0
0.35	-0.983333	0
0.383333	-0.983333	0
0.416667	-0.983333	0
0.45	-0.983333	0
0.483333	-0.983333	0
0.516667	-0.983333	0
0.55	-0.983333	0
0.583333	-0.983333	0
0.616667	-0.983333	0
0.65	-0.983333	0
0.683333	-0.983333	0
0.716667	-0.983333	0
0.75	-0.983333	0
0.783333	-0.983333	0
0.816667	-0.983333	0
0.85	-0.983333	0
0.883333	-0.983333	0
0.916667	-0.983333	0
0.95	-0.983333	0
0.983333	-0.983333	0
0.0166667	-0.95	0
0.05	-0.95	0
0.0833333	-0.95	0
0.116667	-0.95	0
0.15	-0.95	0
0.183333	-0.95	0
0.216667	-0.95	0
0.25	-0.95	0
0.283333	-0.95	0
0.316667	-0.95	0
0.35	-0.95	0
0.383333	-0.95	0
0.416667	-0.95	0
0.45	-0.95	0
0.483333	-0.95	0
0.516667	-0.95	0
0.55	-0.95	0
0.583333	-0.95	0
0.616667	-0.95	0
0.65	-0.95	0
0.683333	-0.95	0
0.716667	-0.95	0
0.75	-0.95	0
0.783333	-0.95	0
0.816667	-0.95	0
0.85	-0.95	0
0.883333	-0.95	0
0.916667	-0.95	0
0.95	-0.95	0
0.983333	-0.95	0
0.0166667	-0.916667	0
0.05	-0.916667	0
0.0833333	-0.916667	0
0.116667	-0.916667	0
0.15	-0.916667	0
0.183333	-0.916667	0
0.216667	-0.916667	0
0.25	-0.916667	0
0.283333	-0.916667	0
0.316667	-0.916667	0
0.35	-0.916667	0
0.383333	-0.916667	0
0.416667	-0.916667	0
0.45	-0.916667	0
0.483333	-0.916667	0
0.516667	-0.916667	0
0.55	-0.916667	0
0.583333	-0.916667	0
0.616667	-0.916667	0
0.65	-0.916667	0
0.683333	-0.916667	0
0.716667	-0.916667	0
0.75	-0.916667	0
0.783333	-0.916667	0
0.816667	-0.916667	0
0.85	-0.916667	0
0.883333	-0.916667	0
0.916667	-0.916667	0
0.95	-0.916667	0
0.983333	-0.916667	0
0.0166667	-0.883333	0
0.05	-0.883333	0
0.0833333	-0.883333	0
0.116667	-0.883333	0
0.15	-0.883333	0
0.183333	-0.883333	0
0.216667	-0.883333	0
0.25	-0.883333	0
0.283333	-0.883333	0
0.316667	-0.883333	0
0.35	-0.883333	0
0.383333	-0.883333	0
0.416667	-0.883333	0
0.45	-0.883333	0
0.483333	-0.883333	0
0.516667	-0.883333	0
0.55	-0.883333	0
0.583333	-0.883333	0
0.616667	-0.883333	0
0.65	-0.883333	0
0.683333	-0.883333	0
0.716667	-0.883333	0
0.75	-0.883333	0
0.783333	-0.883333	0
0.816667	-0.883333	0
0.85	-0.883333	0
0.883333	-0.883333	0
0.916667	-0.883333	0
0.95	-0.883333	0
0.983333	-0.883333	0
0.0166667	-0.85	0
0.05	-0.85	0
0.0833333	-0.85	0
0.116667	-0.85	0
0.15	-0.85	0
0.183333	-0.85	0
0.216667	-0.85	0
0.25	-0.85	0
0.283333	-0.85	0
0.316667	-0.85	0
0.35	-0.85	0
0.383333	-0.85	0
0.416667	-0.85	0
0.45	-0.85	0
0.483333	-0.85	0
0.516667	-0.85	0
0.55	-0.85	0
0.583333	-0.85	0
0.616667	-0.85	0
0.65	-0.85	0
0.683333	-0.85	0
0.716667	-0.85	0
0.75	-0.85	0
0.783333	-0.85	0
0.816667	-0.85	0
0.85	-0.85	0
0.883333	-0.85	0
0.916667	-0.85	0
0.95	-0.85	0
0.983333	-0.85	0
0.0166667	-0.816667	0
0.05	-0.816667	0
0.0833333	-0.816667	0
0.116667	-0.816667	0
0.15	-0.816667	0
0.183333	-0.816667	0
0.216667	-0.816667	0
0.25	-0.816667	0
0.283333	-0.816667	0
0.316667	-0.816667	0
0.35	-0.816667	0
0.383333	-0.816667	0
0.416667	-0.816667	0
0.45	-0.816667	0
0.483333	-0.816667	0
0.516667	-0.816667	0
0.55	-0.816667	0
0.583333	-0.816667	0
0.616667	-0.816667	0
0.65	-0.816667	0
0.683333	-0.816667	0
0.716667	-0.816667	0
0.75	-0.816667	0
0.783333	-0.816667	0
0.816667	-0.816667	0
0.85	-0.816667	0
0.883333	-0.816667	0
0.916667	-0.816667	0
0.95	-0.816667	0
0.983333	-0.816667	0
0.0166667	-0.783333	0
0.05	-0.783333	0
0.0833333	-0.783333	0
0.116667	-0.783333	0
0.15	-0.783333	0
0.183333	-0.783333	0
0.216667	-0.783333	0
0.25	-0.783333	0
0.283333	-0.783333	0
0.316667	-0.783333	0
0.35	-0.783333	0
0.383333	-0.783333	0
0.416667	-0.783333	0
0.45	-0.783333	0
0.483333	-0.783333	0
0.516667	-0.783333	0
0.55	-0.783333	0
0.583333	-0.783333	0
0.616667	-0.783333	0
0.65	-0.783333	0
0.683333	-0.783333	0
0.716667	-0.783333	0
0.75	-0.783333	0
0.783333	-0.783333	0
0.816667	-0.783333	0
0.85	-0.783333	0
0.883333	-0.783333	0
0.916667	-0.783333	0
0.95	-0.783333	0
0.983333	-0.783333	0
0.0166667	-0.75	0
0.05	-0.75	0
0.0833333	-0.75	0
0.116667	-0.75	0
0.15	-0.75	0
0.183333	-0.75	0
0.216667	-0.75	0
0.25	-0.75	0
0.283333	-0.75	0
0.316667	-0.75	0
0.35	-0.75	0
0.383333	-0.75	0
0.416667	-0.75	0
0.45	-0.75	0
0.483333	-0.75	0
0.516667	-0.75	0
0.55	-0.75	0
0.583333	-0.75	0
0.616667	-0.75	0
0.65	-0.75	0
0.683333	-0.75	0
0.716667	-0.75	0
0.75	-0.75	0
0.783333	-0.75	0
0.816667	-0.75	0
0.85	-0.75	0
0.883333	-0.75	0
0.916667	-0.75	0
0.95	-0.75	0
0.983333	-0.75	0
0.0166667	-0.716667	0
0.05	-0.716667	0
0.0833333	-0.716667	0
0.116667	-0.716667	0
0.15	-0.716667	0
0.183333	-0.716667	0
0.216667	-0.716667	0
0.25	-0.716667	0
0.283333	-0.716667	0
0.316667	-0.716667	0
0.35	-0.716667	0
0.383333	-0.716667	0
0.416667	-0.716667	0
0.45	-0.716667	0
0.483333	-0.716667	0
0.516667	-0.716667	0
0.55	-0.716667	0
0.583333	-0.716667	0
0.616667	-0.716667	0
0.65	-0.716667	0
0.683333	-0.716667	0
0.716667	-0.716667	0
0.75	-0.716667	0
0.783333	-0.716667	0
0.816667	-0.716667	0
0.85	-0.716667	0
0.883333	-0.716667	0
0.916667	-0.716667	0
0.95	-0.716667	0
0.983333	-0.716667	0
0.0166667	-0.683333	0
0.05	-0.683333	0
0.0833333	-0.683333	0
0.116667	-0.683333	0
0.15	-0.683333	0
0.183333	-0.683333	0
0.216667	-0.683333	0
0.25	-0.683333	0
0.283333	-0.683333	0
0.316667	-0.683333	0
0.35	-0.683333	0
0.383333	-0.683333	0
0.416667	-0.683333	0
0.45	-0.683333	0
0.483333	-0.683333	0
0.516667	-0.683333	0
0.55	-0.683333	0
0.583333	-0.683333	0
0.616667	-0.683333	0
0.65	-0.683333	0
0.683333	-0.683333	0
0.716667	-0.683333	0
0.75	-0.683333	0
0.783333	-0.683333	0
0.816667	-0.683333	0
0.85	-0.683333	0
0.883333	-0.683333	0
0.916667	-0.683333	0
0.95	-0.683333	0
0.983333	-0.683333	0
0.0166667	-0.65	0
0.05	-0.65	0
0.0833333	-0.65	0
0.116667	-0.65	0
0.15	-0.65	0
0.183333	-0.65	0
0.216667	-0.65	0
0.25	-0.65	0
0.283333	-0.65	0
0.316667	-0.65	0
0.35	-0.65	0
0.383333	-0.65	0
0.416667	-0.65	0
0.45	-0.65	0
0.483333	-0.65	0
0.516667	-0.65	0
0.55	-0.65	0
0.583333	-0.65	0
0.616667	-0.65	0
0.65	-0.65	0
0.683333	-0.65	0
0.716667	-0.65	0
0.75	-0.65	0
0.783333	-0.65	0
0.816667	-0.65	0
0.85	-0.65	0
0.883333	-0.65	0
0.916667	-0.65	0
0.95	-0.65	0
0.983333	-0.65	0
0.0166667	-0.616667	0
0.05	-0.616667	0
0.0833333	-0.616667	0
0.116667	-0.616667	0
0.15	-0.616667	0
0.183333	-0.616667	0
0.216667	-0.616667	0
0.25	-0.616667	0
0.283333	-0.616667	0
0.316667	-0.616667	0
0.35	-0.616667	0
0.383333	-0.616667	0
0.416667	-0.616667	0
0.45	-0.616667	0
0.483333	-0.616667	0
0.516667	-0.616667	0
0.55	-0.616667	0
0.583333	-0.616667	0
0.616667	-0.616667	0
0.65	-0.616667	0
0.683333	-0.616667	0
0.716667	-0.616667	0
0.75	-0.616667	0
0.783333	-0.616667	0
0.816667	-0.616667	0
0.85	-0.616667	0
0.883333	-0.616667	0
0.916667	-0.616667	0
0.95	-0.616667	0
0.983333	-0.616667	0
0.0166667	-0.583333	0
0.05	-0.583333	0
0.0833333	-0.583333	0
0.116667	-0.583333	0
0.15	-0.583333	0
0.183333	-0.583333	0
0.216667	-0.583333	0
0.25	-0.583333	0
0.283333	-0.583333	0
0.316667	-0.583333	0
0.35	-0.583333	0
0.383333	-0.583333	0
0.416667	-0.583333	0
0.45	-0.583333	0
0.483333	-0.583333	0
0.516667	-0.583333	0
0.55	-0.583333	0
0.583333	-0.583333	0
0.616667	-0.583333	0
0.65	-0.583333	0
0.683333	-0.583333	0
0.716667	-0.583333	0
0.75	-0.583333	0
0.783333	-0.583333	0
0.816667	-0.583333	0
0.85	-0.583333	0
0.883333	-0.583333	0
0.916667	-0.583333	0
0.95	-0.583333	0
0.983333	-0.583333	0
0.0166667	-0.55	0
0.05	-0.55	0
0.0833333	-0.55	0
0.116667	-0.55	0
0.15	-0.55	0
0.183333	-0.55	0
0.216667	-0.55	0
0.25	-0.55	0
0.283333	-0.55	0
0.316667	-0.55	0
0.35	-0.55	0
0.383333	-0.55	0
0.416667	-0.55	0
0.45	-0.55	0
0.483333	-0.55	0
0.516667	-0.55	0
0.55	-0.55	0
0.583333	-0.55	0
0.616667	-0.55	0
0.65	-0.55	0
0.683333	-0.55	0
0.716667	-0.55	0
0.75	-0.55	0
0.783333	-0.55	0
0.816667	-0.55	0
0.85	-0.55	0
0.883333	-0.55	0
0.916667	-0.55	0
0.95	-0.55	0
0.983333	-0.55	0
0.0166667	-0.516667	0
0.05	-0.516667	0
0.0833333	-0.516667	0
0.116667	-0.516667	0
0.15	-0.516667	0
0.183333	-0.516667	0
0.216667	-0.516667	0
0.25	-0.516667	0
0.283333	-0.516667	0
0.316667	-0.516667	0
0.35	-0.516667	0
0.383333	-0.516667	0
0.416667	-0.516667	0
0.45	-0.516667	0
0.483333	-0.516667	0
0.516667	-0.516667	0
0.55	-0.516667	0
0.583333	-0.516667	0
0.616667	-0.516667	0
0.65	-0.516667	0
0.683333	-0.516667	0
0.716667	-0.516667	0
0.75	-0.516667	0
0.783333	-0.516667	0
0.816667	-0.516667	0
0.85	-0.516667	0
0.883333	-0.516667	0
0.916667	-0.516667	0
0.95	-0.516667	0
0.983333	-0.516667	0
0	-1	0
0.0333333	-1	0
0.0666667	-1	0
0.1	-1	0
0.133333	-1	0
0.166667	-1	0
0.2	-1	0
0.233333	-1	0
0.266667	-1	0
0.3	-1	0
0.333333	-1	0
0.366667	-1	0
0.4	-1	0
0.433333	-1	0
0.466667	-1	0
0.5	-1	0
0.533333	-1	0
0.566667	-1	0
0.6	-1	0
0.633333	-1	0
0.666667	-1	0
0.7	-1	0
0.733333	-1	0
0.766667	-1	0
0.8	-1	0
0.833333	-1	0
0.866667	-1	0
0.9	-1	0
0.933333	-1	0
0.966667	-1	0
1	-1	0
1	-0.966667	0
1	-0.933333	0
1	-0.9	0
1	-0.866667	0
1	-0.833333	0
1	-0.8	0
1	-0.766667	0
1	-0.733333	0
1	-0.7	0
1	-0.666667	0
1	-0.633333	0
1	-0.6	0
1	-0.566667	0
1	-0.533333	0
-0.116667	-0.983333	0
-0.0833333	-0.983333	0
-0.05	-0.983333	0
-0.0166667	-0.983333	0
-0.116667	-0.95	0
-0.0833333	-0.95	0
-0.05	-0.95	0
-0.0166667	-0.95	0
-0.116667	-0.916667	0
-0.0833333	-0.916667	0
-0.05	-0.916667	0
-0.0166667	-0.916667	0
-0.116667	-0.883333	0
-0.0833333	-0.883333	0
-0.05	-0.883333	0
-0.0166667	-0.883333	0
-0.116667	-0.85	0
-0.0833333	-0.85	0
-0.05	-0.85	0
-0.0166667	-0.85	0
-0.116667	-0.816667	0
-0.0833333	-0.816667	0
-0.05	-0.816667	0
-0.0166667	-0.816667	0
-0.116667	-0.783333	0
-0.0833333	-0.783333	0
-0.05	-0.783333	0
-0.0166667	-0.783333	0
-0.116667	-0.75	0
-0.0833333	-0.75	0
-0.05	-0.75	0
-0.0166667	-0.75	0
-0.116667	-0.716667	0
-0.0833333	-0.716667	0
-0.05	-0.716667	0
-0.0166667	-0.716667	0
-0.116667	-0.683333	0
-0.0833333	-0.683333	0
-0.05	-0.683333	0
-0.0166667	-0.683333	0
-0.116667	-0.65	0
-0.0833333	-0.65	0
-0.05	-0.65	0
-0.0166667	-0.65	0
-0.116667	-0.616667	0
-0.0833333	-0.616667	0
-0.05	-0.616667	0
-0.0166667	-0.616667	0
-0.116667	-0.583333	0
-0.0833333	-0.583333	0
-0.05	-0.583333	0
-0.0166667	-0.583333	0
-0.116667	-0.55	0
-0.0833333	-0.55	0
-0.05	-0.55	0
-0.0166667	-0.55	0
-0.116667	-0.516667	0
-0.0833333	-0.516667	0
-0.05	-0.516667	0
-0.0166667	-0.516667	0
-0.133333	-1	0
-0.1	-1	0
-0.0666667	-1	0
-0.0333333	-1	0
-0.116667	-0.483333	0
-0.0833333	-0.483333	0
-0.05	-0.483333	0
-0.0166667	-0.483333	0
-0.116667	-0.45	0
-0.0833333	-0.45	0
-0.05	-0.45	0
-0.0166667	-0.45	0
-0.116667	-0.416667	0
-0.0833333	-0.416667	0
-0.05	-0.416667	0
-0.0166667	-0.416667	0
-0.116667	-0.383333	0
-0.0833333	-0.383333	0
-0.05	-0.383333	0
-0.0166667	-0.383333	0
-0.116667	-0.35	0
-0.0833333	-0.35	0
-0.05	-0.35	0
-0.0166667	-0.35	0
0.0166667	-0.483333	0
0.05	-0.483333	0
0.0833333	-0.483333	0
0.116667	-0.483333	0
0.15	-0.483333	0
0.183333	-0.483333	0
0.216667	-0.483333	0
0.25	-0.483333	0
0.283333	-0.483333	0
0.316667	-0.483333	0
0.35	-0.483333	0
0.383333	-0.483333	0
0.416667	-0.483333	0
0.45	-0.483333	0
0.483333	-0.483333	0
0.516667	-0.483333	0
0.55	-0.483333	0
0.583333	-0.483333	0
0.616667	-0.483333	0
0.65	-0.483333	0
0.683333	-0.483333	0
0.716667	-0.483333	0
0.75	-0.483333	0
0.783333	-0.483333	0
0.816667	-0.483333	0
0.85	-0.483333	0
0.883333	-0.483333	0
0.916667	-0.483333	0
0.95	-0.483333	0
0.983333	-0.483333	0
0.0166667	-0.45	0
0.05	-0.45	0
0.0833333	-0.45	0
0.116667	-0.45	0
0.15	-0.45	0
0.183333	-0.45	0
0.216667	-0.45	0
0.25	-0.45	0
0.283333	-0.45	0
0.316667	-0.45	0
0.35	-0.45	0
0.383333	-0.45	0
0.416667	-0.45	0
0.45	-0.45	0
0.483333	-0.45	0
0.516667	-0.45	0
0.55	-0.45	0
0.583333	-0.45	0
0.616667	-0.45	0
0.65	-0.45	0
0.683333	-0.45	0
0.716667	-0.45	0
0.75	-0.45	0
0.783333	-0.45	0
0.816667	-0.45	0
0.85	-0.45	0
0.883333	-0.45	0
0.916667	-0.45	0
0.95	-0.45	0
0.983333	-0.45	0
0.0166667	-0.416667	0
0.05	-0.416667	0
0.0833333	-0.416667	0
0.116667	-0.416667	0
0.15	-0.416667	0
0.183333	-0.416667	0
0.216667	-0.416667	0
0.25	-0.416667	0
0.283333	-0.416667	0
0.316667	-0.416667	0
0.35	-0.416667	0
0.383333	-0.416667	0
0.416667	-0.416667	0
0.45	-0.416667	0
0.483333	-0.416667	0
0.516667	-0.416667	0
0.55	-0.416667	0
0.583333	-0.416667	0
0.616667	-0.416667	0
0.65	-0.416667	0
0.683333	-0.416667	0
0.716667	-0.416667	0
0.75	-0.416667	0
0.783333	-0.416667	0
0.816667	-0.416667	0
0.85	-0.416667	0
0.883333	-0.416667	0
0.916667	-0.416667	0
0.95	-0.416667	0
0.983333	-0.416667	0
0.0166667	-0.383333	0
0.05	-0.383333	0
0.0833333	-0.383333	0
0.116667	-0.383333	0
0.15	-0.383333	0
0.183333	-0.383333	0
0.216667	-0.383333	0
0.25	-0.383333	0
0.283333	-0.383333	0
0.316667	-0.383333	0
0.35	-0.383333	0
0.383333	-0.383333	0
0.416667	-0.383333	0
0.45	-0.383333	0
0.483333	-0.383333	0
0.516667	-0.383333	0
0.55	-0.383333	0
0.583333	-0.383333	0
0.616667	-0.383333	0
0.65	-0.383333	0
0.683333	-0.383333	0
0.716667	-0.383333	0
0.75	-0.383333	0
0.783333	-0.383333	0
0.816667	-0.383333	0
0.85	-0.383333	0
0.883333	-0.383333	0
0.916667	-0.383333	0
0.95	-0.383333	0
0.983333	-0.383333	0
0.0166667	-0.35	0
0.05	-0.35	0
0.0833333	-0.35	0
0.116667	-0.35	0
0.15	-0.35	0
0.183333	-0.35	0
0.216667	-0.35	0
0.25	-0.35	0
0.283333	-0.35	0
0.316667	-0.35	0
0.35	-0.35	0
0.383333	-0.35	0
0.416667	-0.35	0
0.45	-0.35	0
0.483333	-0.35	0
0.516667	-0.35	0
0.55	-0.35	0
0.583333	-0.35	0
0.616667	-0.35	0
0.65	-0.35	0
0.683333	-0.35	0
0.716667	-0.35	0
0.75	-0.35	0
0.783333	-0.35	0
0.816667	-0.35	0
0.85	-0.35	0
0.883333	-0.35	0
0.916667	-0.35	0
0.95	-0.35	0
0.983333	-0.35	0
1	-0.5	0
1	-0.466667	0
1	-0.433333	0
1	-0.4	0
1	-0.366667	0
POINT_DATA 734
SCALARS Index int 1
LOOKUP_TABLE default
495
496
497
498
499
500
501
502
503
504
505
506
507
508
509
510
511
512
513
514
515
516
517
518
519
520
521
522
523
524
525
526
527
528
529
530
531
532
533
534
535
536
537
538
539
540
541
542
543
544
545
546
547
548
549
550
551
552
553
554
555
556
557
558
559
560
561
562
563
564
565
566
567
568
569
570
571
572
573
574
575
576
577
578
579
580
581
582
583
584
585
586
587
588
589
590
591
592
593
594
595
596
597
598
599
600
601
602
603
604
605
606
607
608
609
610
611
612
613
614
615
616
617
618
619
620
621
622
623
624
625
626
627
628
629
630
631
632
633
634
635
636
637
638
639
640
641
642
643
644
645
646
647
648
649
650
651
652
653
654
655
656
657
658
659
660
661
662
663
664
665
666
667
668
669
670
671
672
673
674
675
676
677
678
679
680
681
682
683
684
685
686
687
688
689
690
691
692
693
694
695
696
697
698
699
700
701
702
703
704
705
706
707
708
709
710
711
712
713
714
715
716
717
718
719
720
721
722
723
724
725
726
727
728
729
730
731
732
733
734
735
736
737
738
739
740
741
742
743
744
745
746
747
748
749
750
751
752
753
754
755
756
757
758
759
760
761
762
763
764
765
766
767
768
769
770
771
772
773
774
775
776
777
778
779
780
781
782
783
784
785
786
787
788
789
790
791
792
793
794
795
796
797
798
799
800
801
802
803
804
805
806
807
808
809
810
811
812
813
814
815
816
817
818
819
820
821
822
823
824
825
826
827
828
829
830
831
832
833
834
835
836
837
838
839
840
841
842
843
844
845
846
847
848
849
850
851
852
853
854
855
856
857
858
859
860
861
862
863
864
865
866
867
868
869
870
871
872
873
874
875
876
877
878
879
880
881
882
883
884
885
886
887
888
889
890
891
892
893
894
895
896
897
898
899
900
901
902
903
904
905
906
907
908
909
910
911
912
913
914
915
916
917
918
919
920
921
922
923
924
925
926
927
928
929
930
931
932
933
934
935
936
937
938
939
940
941
942
943
944
945
946
947
948
949
950
951
952
953
954
955
956
957
958
959
960
961
962
963
964
965
966
967
968
969
970
971
972
973
974
975
976
977
978
979
980
981
982
983
984
985
986
987
988
989
26
27
28
29
56
57
58
59
86
87
88
89
116
117
118
119
146
147
148
149
176
177
178
179
206
207
208
209
236
237
238
239
266
267
268
269
296
297
298
299
326
327
328
329
356
357
358
359
386
387
388
389
416
417
418
419
446
447
448
449
476
477
478
479
1016
1017
1018
1019
1046
1047
1048
1049
1076
1077
1078
1079
1106
1107
1108
1109
1136
1137
1138
1139
1455
1456
1457
1458
1459
1460
1461
1462
1463
1464
1465
1466
1467
1468
1469
1470
1471
1472
1473
1474
1475
1476
1477
1478
1479
1480
1481
1482
1483
1484
1485
1486
1487
1488
1489
1490
1491
1492
1493
1494
1495
1496
1497
1498
1499
1500
1501
1502
1503
1504
1505
1506
1507
1508
1509
1510
1511
1512
1513
1514
1515
1516
1517
1518
1519
1520
1521
1522
1523
1524
1525
1526
1527
1528
1529
1530
1531
1532
1533
1534
1535
1536
1537
1538
1539
1540
1541
1542
1543
1544
1545
1546
1547
1548
1549
1550
1551
1552
1553
1554
1555
1556
1557
1558
1559
1560
1561
1562
1563
1564
1565
1566
1567
1568
1569
1570
1571
1572
1573
1574
1575
1576
1577
1578
1579
1580
1581
1582
1583
1584
1585
1586
1587
1588
1589
1590
1591
1592
1593
1594
1595
1596
1597
1598
1599
1600
1601
1602
1603
1604
1905
1906
1907
1908
1909
